<?xml version="1.0"?>
<VTKFile type="StructuredGrid">
<StructuredGrid WholeExtent="0 15 14 29 0 0 ">
<Piece Extent="0 15 14 29 0 0 ">
<Points>
<DataArray type="Float64" Name="coordinate" NumberOfComponents="3" format="ascii">
0.00000000000000000e+00 0.00000000000000000e+00 0 
0.00000000000000000e+00 0.00000000000000000e+00 0 
0.00000000000000000e+00 0.00000000000000000e+00 0 
0.00000000000000000e+00 0.00000000000000000e+00 0 
0.00000000000000000e+00 0.00000000000000000e+00 0 
0.00000000000000000e+00 0.00000000000000000e+00 0 
0.00000000000000000e+00 0.00000000000000000e+00 0 
0.00000000000000000e+00 0.00000000000000000e+00 0 
0.00000000000000000e+00 0.00000000000000000e+00 0 
0.00000000000000000e+00 0.00000000000000000e+00 0 
0.00000000000000000e+00 0.00000000000000000e+00 0 
0.00000000000000000e+00 0.00000000000000000e+00 0 
0.00000000000000000e+00 0.00000000000000000e+00 0 
0.00000000000000000e+00 0.00000000000000000e+00 0 
0.00000000000000000e+00 0.00000000000000000e+00 0 
0.00000000000000000e+00 0.00000000000000000e+00 0 
0.00000000000000000e+00 5.17241379310344862e-01 0 
3.44827586206896547e-02 5.17241379310344862e-01 0 
6.89655172413793094e-02 5.17241379310344862e-01 0 
1.03448275862068964e-01 5.17241379310344862e-01 0 
1.37931034482758619e-01 5.17241379310344862e-01 0 
1.72413793103448287e-01 5.17241379310344862e-01 0 
2.06896551724137928e-01 5.17241379310344862e-01 0 
2.41379310344827569e-01 5.17241379310344862e-01 0 
2.75862068965517238e-01 5.17241379310344862e-01 0 
3.10344827586206906e-01 5.17241379310344862e-01 0 
3.44827586206896575e-01 5.17241379310344862e-01 0 
3.79310344827586188e-01 5.17241379310344862e-01 0 
4.13793103448275856e-01 5.17241379310344862e-01 0 
4.48275862068965525e-01 5.17241379310344862e-01 0 
4.82758620689655138e-01 5.17241379310344862e-01 0 
0.00000000000000000e+00 0.00000000000000000e+00 0 
0.00000000000000000e+00 5.51724137931034475e-01 0 
3.44827586206896547e-02 5.51724137931034475e-01 0 
6.89655172413793094e-02 5.51724137931034475e-01 0 
1.03448275862068964e-01 5.51724137931034475e-01 0 
1.37931034482758619e-01 5.51724137931034475e-01 0 
1.72413793103448287e-01 5.51724137931034475e-01 0 
2.06896551724137928e-01 5.51724137931034475e-01 0 
2.41379310344827569e-01 5.51724137931034475e-01 0 
2.75862068965517238e-01 5.51724137931034475e-01 0 
3.10344827586206906e-01 5.51724137931034475e-01 0 
3.44827586206896575e-01 5.51724137931034475e-01 0 
3.79310344827586188e-01 5.51724137931034475e-01 0 
4.13793103448275856e-01 5.51724137931034475e-01 0 
4.48275862068965525e-01 5.51724137931034475e-01 0 
4.82758620689655138e-01 5.51724137931034475e-01 0 
0.00000000000000000e+00 0.00000000000000000e+00 0 
0.00000000000000000e+00 5.86206896551724088e-01 0 
3.44827586206896547e-02 5.86206896551724088e-01 0 
6.89655172413793094e-02 5.86206896551724088e-01 0 
1.03448275862068964e-01 5.86206896551724088e-01 0 
1.37931034482758619e-01 5.86206896551724088e-01 0 
1.72413793103448287e-01 5.86206896551724088e-01 0 
2.06896551724137928e-01 5.86206896551724088e-01 0 
2.41379310344827569e-01 5.86206896551724088e-01 0 
2.75862068965517238e-01 5.86206896551724088e-01 0 
3.10344827586206906e-01 5.86206896551724088e-01 0 
3.44827586206896575e-01 5.86206896551724088e-01 0 
3.79310344827586188e-01 5.86206896551724088e-01 0 
4.13793103448275856e-01 5.86206896551724088e-01 0 
4.48275862068965525e-01 5.86206896551724088e-01 0 
4.82758620689655138e-01 5.86206896551724088e-01 0 
0.00000000000000000e+00 0.00000000000000000e+00 0 
0.00000000000000000e+00 6.20689655172413812e-01 0 
3.44827586206896547e-02 6.20689655172413812e-01 0 
6.89655172413793094e-02 6.20689655172413812e-01 0 
1.03448275862068964e-01 6.20689655172413812e-01 0 
1.37931034482758619e-01 6.20689655172413812e-01 0 
1.72413793103448287e-01 6.20689655172413812e-01 0 
2.06896551724137928e-01 6.20689655172413812e-01 0 
2.41379310344827569e-01 6.20689655172413812e-01 0 
2.75862068965517238e-01 6.20689655172413812e-01 0 
3.10344827586206906e-01 6.20689655172413812e-01 0 
3.44827586206896575e-01 6.20689655172413812e-01 0 
3.79310344827586188e-01 6.20689655172413812e-01 0 
4.13793103448275856e-01 6.20689655172413812e-01 0 
4.48275862068965525e-01 6.20689655172413812e-01 0 
4.82758620689655138e-01 6.20689655172413812e-01 0 
0.00000000000000000e+00 0.00000000000000000e+00 0 
0.00000000000000000e+00 6.55172413793103425e-01 0 
3.44827586206896547e-02 6.55172413793103425e-01 0 
6.89655172413793094e-02 6.55172413793103425e-01 0 
1.03448275862068964e-01 6.55172413793103425e-01 0 
1.37931034482758619e-01 6.55172413793103425e-01 0 
1.72413793103448287e-01 6.55172413793103425e-01 0 
2.06896551724137928e-01 6.55172413793103425e-01 0 
2.41379310344827569e-01 6.55172413793103425e-01 0 
2.75862068965517238e-01 6.55172413793103425e-01 0 
3.10344827586206906e-01 6.55172413793103425e-01 0 
3.44827586206896575e-01 6.55172413793103425e-01 0 
3.79310344827586188e-01 6.55172413793103425e-01 0 
4.13793103448275856e-01 6.55172413793103425e-01 0 
4.48275862068965525e-01 6.55172413793103425e-01 0 
4.82758620689655138e-01 6.55172413793103425e-01 0 
0.00000000000000000e+00 0.00000000000000000e+00 0 
0.00000000000000000e+00 6.89655172413793149e-01 0 
3.44827586206896547e-02 6.89655172413793149e-01 0 
6.89655172413793094e-02 6.89655172413793149e-01 0 
1.03448275862068964e-01 6.89655172413793149e-01 0 
1.37931034482758619e-01 6.89655172413793149e-01 0 
1.72413793103448287e-01 6.89655172413793149e-01 0 
2.06896551724137928e-01 6.89655172413793149e-01 0 
2.41379310344827569e-01 6.89655172413793149e-01 0 
2.75862068965517238e-01 6.89655172413793149e-01 0 
3.10344827586206906e-01 6.89655172413793149e-01 0 
3.44827586206896575e-01 6.89655172413793149e-01 0 
3.79310344827586188e-01 6.89655172413793149e-01 0 
4.13793103448275856e-01 6.89655172413793149e-01 0 
4.48275862068965525e-01 6.89655172413793149e-01 0 
4.82758620689655138e-01 6.89655172413793149e-01 0 
0.00000000000000000e+00 0.00000000000000000e+00 0 
0.00000000000000000e+00 7.24137931034482762e-01 0 
3.44827586206896547e-02 7.24137931034482762e-01 0 
6.89655172413793094e-02 7.24137931034482762e-01 0 
1.03448275862068964e-01 7.24137931034482762e-01 0 
1.37931034482758619e-01 7.24137931034482762e-01 0 
1.72413793103448287e-01 7.24137931034482762e-01 0 
2.06896551724137928e-01 7.24137931034482762e-01 0 
2.41379310344827569e-01 7.24137931034482762e-01 0 
2.75862068965517238e-01 7.24137931034482762e-01 0 
3.10344827586206906e-01 7.24137931034482762e-01 0 
3.44827586206896575e-01 7.24137931034482762e-01 0 
3.79310344827586188e-01 7.24137931034482762e-01 0 
4.13793103448275856e-01 7.24137931034482762e-01 0 
4.48275862068965525e-01 7.24137931034482762e-01 0 
4.82758620689655138e-01 7.24137931034482762e-01 0 
0.00000000000000000e+00 0.00000000000000000e+00 0 
0.00000000000000000e+00 7.58620689655172376e-01 0 
3.44827586206896547e-02 7.58620689655172376e-01 0 
6.89655172413793094e-02 7.58620689655172376e-01 0 
1.03448275862068964e-01 7.58620689655172376e-01 0 
1.37931034482758619e-01 7.58620689655172376e-01 0 
1.72413793103448287e-01 7.58620689655172376e-01 0 
2.06896551724137928e-01 7.58620689655172376e-01 0 
2.41379310344827569e-01 7.58620689655172376e-01 0 
2.75862068965517238e-01 7.58620689655172376e-01 0 
3.10344827586206906e-01 7.58620689655172376e-01 0 
3.44827586206896575e-01 7.58620689655172376e-01 0 
3.79310344827586188e-01 7.58620689655172376e-01 0 
4.13793103448275856e-01 7.58620689655172376e-01 0 
4.48275862068965525e-01 7.58620689655172376e-01 0 
4.82758620689655138e-01 7.58620689655172376e-01 0 
0.00000000000000000e+00 0.00000000000000000e+00 0 
0.00000000000000000e+00 7.93103448275862100e-01 0 
3.44827586206896547e-02 7.93103448275862100e-01 0 
6.89655172413793094e-02 7.93103448275862100e-01 0 
1.03448275862068964e-01 7.93103448275862100e-01 0 
1.37931034482758619e-01 7.93103448275862100e-01 0 
1.72413793103448287e-01 7.93103448275862100e-01 0 
2.06896551724137928e-01 7.93103448275862100e-01 0 
2.41379310344827569e-01 7.93103448275862100e-01 0 
2.75862068965517238e-01 7.93103448275862100e-01 0 
3.10344827586206906e-01 7.93103448275862100e-01 0 
3.44827586206896575e-01 7.93103448275862100e-01 0 
3.79310344827586188e-01 7.93103448275862100e-01 0 
4.13793103448275856e-01 7.93103448275862100e-01 0 
4.48275862068965525e-01 7.93103448275862100e-01 0 
4.82758620689655138e-01 7.93103448275862100e-01 0 
0.00000000000000000e+00 0.00000000000000000e+00 0 
0.00000000000000000e+00 8.27586206896551713e-01 0 
3.44827586206896547e-02 8.27586206896551713e-01 0 
6.89655172413793094e-02 8.27586206896551713e-01 0 
1.03448275862068964e-01 8.27586206896551713e-01 0 
1.37931034482758619e-01 8.27586206896551713e-01 0 
1.72413793103448287e-01 8.27586206896551713e-01 0 
2.06896551724137928e-01 8.27586206896551713e-01 0 
2.41379310344827569e-01 8.27586206896551713e-01 0 
2.75862068965517238e-01 8.27586206896551713e-01 0 
3.10344827586206906e-01 8.27586206896551713e-01 0 
3.44827586206896575e-01 8.27586206896551713e-01 0 
3.79310344827586188e-01 8.27586206896551713e-01 0 
4.13793103448275856e-01 8.27586206896551713e-01 0 
4.48275862068965525e-01 8.27586206896551713e-01 0 
4.82758620689655138e-01 8.27586206896551713e-01 0 
0.00000000000000000e+00 0.00000000000000000e+00 0 
0.00000000000000000e+00 8.62068965517241326e-01 0 
3.44827586206896547e-02 8.62068965517241326e-01 0 
6.89655172413793094e-02 8.62068965517241326e-01 0 
1.03448275862068964e-01 8.62068965517241326e-01 0 
1.37931034482758619e-01 8.62068965517241326e-01 0 
1.72413793103448287e-01 8.62068965517241326e-01 0 
2.06896551724137928e-01 8.62068965517241326e-01 0 
2.41379310344827569e-01 8.62068965517241326e-01 0 
2.75862068965517238e-01 8.62068965517241326e-01 0 
3.10344827586206906e-01 8.62068965517241326e-01 0 
3.44827586206896575e-01 8.62068965517241326e-01 0 
3.79310344827586188e-01 8.62068965517241326e-01 0 
4.13793103448275856e-01 8.62068965517241326e-01 0 
4.48275862068965525e-01 8.62068965517241326e-01 0 
4.82758620689655138e-01 8.62068965517241326e-01 0 
0.00000000000000000e+00 0.00000000000000000e+00 0 
0.00000000000000000e+00 8.96551724137931050e-01 0 
3.44827586206896547e-02 8.96551724137931050e-01 0 
6.89655172413793094e-02 8.96551724137931050e-01 0 
1.03448275862068964e-01 8.96551724137931050e-01 0 
1.37931034482758619e-01 8.96551724137931050e-01 0 
1.72413793103448287e-01 8.96551724137931050e-01 0 
2.06896551724137928e-01 8.96551724137931050e-01 0 
2.41379310344827569e-01 8.96551724137931050e-01 0 
2.75862068965517238e-01 8.96551724137931050e-01 0 
3.10344827586206906e-01 8.96551724137931050e-01 0 
3.44827586206896575e-01 8.96551724137931050e-01 0 
3.79310344827586188e-01 8.96551724137931050e-01 0 
4.13793103448275856e-01 8.96551724137931050e-01 0 
4.48275862068965525e-01 8.96551724137931050e-01 0 
4.82758620689655138e-01 8.96551724137931050e-01 0 
0.00000000000000000e+00 0.00000000000000000e+00 0 
0.00000000000000000e+00 9.31034482758620663e-01 0 
3.44827586206896547e-02 9.31034482758620663e-01 0 
6.89655172413793094e-02 9.31034482758620663e-01 0 
1.03448275862068964e-01 9.31034482758620663e-01 0 
1.37931034482758619e-01 9.31034482758620663e-01 0 
1.72413793103448287e-01 9.31034482758620663e-01 0 
2.06896551724137928e-01 9.31034482758620663e-01 0 
2.41379310344827569e-01 9.31034482758620663e-01 0 
2.75862068965517238e-01 9.31034482758620663e-01 0 
3.10344827586206906e-01 9.31034482758620663e-01 0 
3.44827586206896575e-01 9.31034482758620663e-01 0 
3.79310344827586188e-01 9.31034482758620663e-01 0 
4.13793103448275856e-01 9.31034482758620663e-01 0 
4.48275862068965525e-01 9.31034482758620663e-01 0 
4.82758620689655138e-01 9.31034482758620663e-01 0 
0.00000000000000000e+00 0.00000000000000000e+00 0 
0.00000000000000000e+00 9.65517241379310276e-01 0 
3.44827586206896547e-02 9.65517241379310276e-01 0 
6.89655172413793094e-02 9.65517241379310276e-01 0 
1.03448275862068964e-01 9.65517241379310276e-01 0 
1.37931034482758619e-01 9.65517241379310276e-01 0 
1.72413793103448287e-01 9.65517241379310276e-01 0 
2.06896551724137928e-01 9.65517241379310276e-01 0 
2.41379310344827569e-01 9.65517241379310276e-01 0 
2.75862068965517238e-01 9.65517241379310276e-01 0 
3.10344827586206906e-01 9.65517241379310276e-01 0 
3.44827586206896575e-01 9.65517241379310276e-01 0 
3.79310344827586188e-01 9.65517241379310276e-01 0 
4.13793103448275856e-01 9.65517241379310276e-01 0 
4.48275862068965525e-01 9.65517241379310276e-01 0 
4.82758620689655138e-01 9.65517241379310276e-01 0 
0.00000000000000000e+00 0.00000000000000000e+00 0 
0.00000000000000000e+00 1.00000000000000000e+00 0 
3.44827586206896547e-02 1.00000000000000000e+00 0 
6.89655172413793094e-02 1.00000000000000000e+00 0 
1.03448275862068964e-01 1.00000000000000000e+00 0 
1.37931034482758619e-01 1.00000000000000000e+00 0 
1.72413793103448287e-01 1.00000000000000000e+00 0 
2.06896551724137928e-01 1.00000000000000000e+00 0 
2.41379310344827569e-01 1.00000000000000000e+00 0 
2.75862068965517238e-01 1.00000000000000000e+00 0 
3.10344827586206906e-01 1.00000000000000000e+00 0 
3.44827586206896575e-01 1.00000000000000000e+00 0 
3.79310344827586188e-01 1.00000000000000000e+00 0 
4.13793103448275856e-01 1.00000000000000000e+00 0 
4.48275862068965525e-01 1.00000000000000000e+00 0 
4.82758620689655138e-01 1.00000000000000000e+00 0 
0.00000000000000000e+00 0.00000000000000000e+00 0 
</DataArray>
</Points>
<PointData>
<DataArray type="Float64" Name="heat" NumberOfComponents="1" format="ascii">
0.00000000000000000e+00
0.00000000000000000e+00
0.00000000000000000e+00
0.00000000000000000e+00
0.00000000000000000e+00
0.00000000000000000e+00
0.00000000000000000e+00
0.00000000000000000e+00
0.00000000000000000e+00
0.00000000000000000e+00
0.00000000000000000e+00
0.00000000000000000e+00
0.00000000000000000e+00
0.00000000000000000e+00
0.00000000000000000e+00
0.00000000000000000e+00
2.33507728894173461e+00
2.33626634958383050e+00
2.33983353151010665e+00
2.34577883472057191e+00
2.35410225921522009e+00
2.36480380499405518e+00
2.37788347205707407e+00
2.39334126040428075e+00
2.41117717003567389e+00
2.43139120095125039e+00
2.45398335315101068e+00
2.47895362663496011e+00
2.50630202140309200e+00
2.53602853745541168e+00
2.56813317479191383e+00
0.00000000000000000e+00
2.40879904875148432e+00
2.40998810939357710e+00
2.41355529131985636e+00
2.41950059453031852e+00
2.42782401902496936e+00
2.43852556480380400e+00
2.45160523186682466e+00
2.46706302021402957e+00
2.48489892984541738e+00
2.50511296076099921e+00
2.52770511296076084e+00
2.55267538644471026e+00
2.58002378121284037e+00
2.60975029726516006e+00
2.64185493460166487e+00
0.00000000000000000e+00
2.48727705112960606e+00
2.48846611177169885e+00
2.49203329369797677e+00
2.49797859690844026e+00
2.50630202140308800e+00
2.51700356718192486e+00
2.53008323424494463e+00
2.54554102259215176e+00
2.56337693222354179e+00
2.58359096313911962e+00
2.60618311533888258e+00
2.63115338882283245e+00
2.65850178359096567e+00
2.68822829964328092e+00
2.72033293697978618e+00
0.00000000000000000e+00
2.57051129607609941e+00
2.57170035671819264e+00
2.57526753864447278e+00
2.58121284185493494e+00
2.58953626634958178e+00
2.60023781212841776e+00
2.61331747919143753e+00
2.62877526753864332e+00
2.64661117717003425e+00
2.66682520808561252e+00
2.68941736028537415e+00
2.71438763376932268e+00
2.74173602853745324e+00
2.77146254458977426e+00
2.80356718192627863e+00
0.00000000000000000e+00
2.65850178359096256e+00
2.65969084423305535e+00
2.66325802615933593e+00
2.66920332936979898e+00
2.67752675386444849e+00
2.68822829964328180e+00
2.70130796670629936e+00
2.71676575505350737e+00
2.73460166468490096e+00
2.75481569560047213e+00
2.77740784780023464e+00
2.80237812128418584e+00
2.82972651605231951e+00
2.85945303210463919e+00
2.89155766944114312e+00
0.00000000000000000e+00
2.75124851367419554e+00
2.75243757431629321e+00
2.75600475624256802e+00
2.76195005945303196e+00
2.77027348394768014e+00
2.78097502972651478e+00
2.79405469678953411e+00
2.80951248513674123e+00
2.82734839476812905e+00
2.84756242568370510e+00
2.87015457788347073e+00
2.89512485136742059e+00
2.92247324613555426e+00
2.95219976218787128e+00
2.98430439952437432e+00
0.00000000000000000e+00
2.84875148632580233e+00
2.84994054696789556e+00
2.85350772889417392e+00
2.85945303210463786e+00
2.86777645659928382e+00
2.87847800237812113e+00
2.89155766944114090e+00
2.90701545778834536e+00
2.92485136741973584e+00
2.94506539833531589e+00
2.96765755053507707e+00
2.99262782401902561e+00
3.01997621878715838e+00
3.04970273483947629e+00
3.08180737217597978e+00
0.00000000000000000e+00
2.95101070154577494e+00
2.95219976218787128e+00
2.95576694411414875e+00
2.96171224732461402e+00
2.97003567181926176e+00
2.98073721759809729e+00
2.99381688466111662e+00
3.00927467300832197e+00
3.02711058263971422e+00
3.04732461355529161e+00
3.06991676575505368e+00
3.09488703923900133e+00
3.12223543400713544e+00
3.15196195005945290e+00
3.18406658739595638e+00
0.00000000000000000e+00
3.05802615933412447e+00
3.05921521997621770e+00
3.06278240190249651e+00
3.06872770511295911e+00
3.07705112960760774e+00
3.08775267538644504e+00
3.10083234244946393e+00
3.11629013079667017e+00
3.13412604042805842e+00
3.15434007134363759e+00
3.17693222354340010e+00
3.20190249702734864e+00
3.22925089179548275e+00
3.25897740784779932e+00
3.29108204518430325e+00
0.00000000000000000e+00
3.16979785969084116e+00
3.17098692033293750e+00
3.17455410225921453e+00
3.18049940546967846e+00
3.18882282996432620e+00
3.19952437574316040e+00
3.21260404280618195e+00
3.22806183115338952e+00
3.24589774078477689e+00
3.26611177170035383e+00
3.28870392390011812e+00
3.31367419738406532e+00
3.34102259215219810e+00
3.37074910820451912e+00
3.40285374554101994e+00
0.00000000000000000e+00
3.28632580261592988e+00
3.28751486325802444e+00
3.29108204518430103e+00
3.29702734839477118e+00
3.30535077288941892e+00
3.31605231866825045e+00
3.32913198573127156e+00
3.34458977407847824e+00
3.36242568370987005e+00
3.38263971462544433e+00
3.40523186682520462e+00
3.43020214030915405e+00
3.45755053507728904e+00
3.48727705112960829e+00
3.51938168846611221e+00
0.00000000000000000e+00
3.40760998810938931e+00
3.40879904875148654e+00
3.41236623067776357e+00
3.41831153388822795e+00
3.42663495838287657e+00
3.43733650416170944e+00
3.45041617122473054e+00
3.46587395957193900e+00
3.48370986920332948e+00
3.50392390011890420e+00
3.52651605231866716e+00
3.55148632580261436e+00
3.57883472057074847e+00
3.60856123662306860e+00
3.64066587395957386e+00
0.00000000000000000e+00
3.53365041617122033e+00
3.53483947681331978e+00
3.53840665873959415e+00
3.54435196195005897e+00
3.55267538644470848e+00
3.56337693222354179e+00
3.57645659928656467e+00
3.59191438763376825e+00
3.60975029726516183e+00
3.62996432818073478e+00
3.65255648038049818e+00
3.67752675386444450e+00
3.70487514863257861e+00
3.73460166468489918e+00
3.76670630202140222e+00
0.00000000000000000e+00
3.66444708680142295e+00
3.66563614744351751e+00
3.66920332936979587e+00
3.67514863258026114e+00
3.68347205707490843e+00
3.69417360285374308e+00
3.70725326991676640e+00
3.72271105826397264e+00
3.74054696789536356e+00
3.76076099881093917e+00
3.78335315101069902e+00
3.80832342449465022e+00
3.83567181926278256e+00
3.86539833531510135e+00
3.89750297265160528e+00
0.00000000000000000e+00
3.79999999999999671e+00
3.80118906064209039e+00
3.80475624256836786e+00
3.81070154577883224e+00
3.81902497027348309e+00
3.82972651605231684e+00
3.84280618311533440e+00
3.85826397146253885e+00
3.87609988109393200e+00
3.89631391200950938e+00
3.91890606420927146e+00
3.94387633769321999e+00
3.97122473246135321e+00
4.00095124851367157e+00
4.03305588585017194e+00
0.00000000000000000e+00
</DataArray>
</PointData>
</Piece>
</StructuredGrid>
</VTKFile>
