<?xml version="1.0"?>
<VTKFile type="StructuredGrid">
<StructuredGrid WholeExtent="14 29 0 15 0 0 ">
<Piece Extent="14 29 0 15 0 0 ">
<Points>
<DataArray type="Float64" Name="coordinate" NumberOfComponents="3" format="ascii">
0.00000000000000000e+00 0.00000000000000000e+00 0 
5.17241379310344862e-01 0.00000000000000000e+00 0 
5.51724137931034475e-01 0.00000000000000000e+00 0 
5.86206896551724088e-01 0.00000000000000000e+00 0 
6.20689655172413812e-01 0.00000000000000000e+00 0 
6.55172413793103425e-01 0.00000000000000000e+00 0 
6.89655172413793149e-01 0.00000000000000000e+00 0 
7.24137931034482762e-01 0.00000000000000000e+00 0 
7.58620689655172376e-01 0.00000000000000000e+00 0 
7.93103448275862100e-01 0.00000000000000000e+00 0 
8.27586206896551713e-01 0.00000000000000000e+00 0 
8.62068965517241326e-01 0.00000000000000000e+00 0 
8.96551724137931050e-01 0.00000000000000000e+00 0 
9.31034482758620663e-01 0.00000000000000000e+00 0 
9.65517241379310276e-01 0.00000000000000000e+00 0 
1.00000000000000000e+00 0.00000000000000000e+00 0 
0.00000000000000000e+00 0.00000000000000000e+00 0 
5.17241379310344862e-01 3.44827586206896547e-02 0 
5.51724137931034475e-01 3.44827586206896547e-02 0 
5.86206896551724088e-01 3.44827586206896547e-02 0 
6.20689655172413812e-01 3.44827586206896547e-02 0 
6.55172413793103425e-01 3.44827586206896547e-02 0 
6.89655172413793149e-01 3.44827586206896547e-02 0 
7.24137931034482762e-01 3.44827586206896547e-02 0 
7.58620689655172376e-01 3.44827586206896547e-02 0 
7.93103448275862100e-01 3.44827586206896547e-02 0 
8.27586206896551713e-01 3.44827586206896547e-02 0 
8.62068965517241326e-01 3.44827586206896547e-02 0 
8.96551724137931050e-01 3.44827586206896547e-02 0 
9.31034482758620663e-01 3.44827586206896547e-02 0 
9.65517241379310276e-01 3.44827586206896547e-02 0 
1.00000000000000000e+00 3.44827586206896547e-02 0 
0.00000000000000000e+00 0.00000000000000000e+00 0 
5.17241379310344862e-01 6.89655172413793094e-02 0 
5.51724137931034475e-01 6.89655172413793094e-02 0 
5.86206896551724088e-01 6.89655172413793094e-02 0 
6.20689655172413812e-01 6.89655172413793094e-02 0 
6.55172413793103425e-01 6.89655172413793094e-02 0 
6.89655172413793149e-01 6.89655172413793094e-02 0 
7.24137931034482762e-01 6.89655172413793094e-02 0 
7.58620689655172376e-01 6.89655172413793094e-02 0 
7.93103448275862100e-01 6.89655172413793094e-02 0 
8.27586206896551713e-01 6.89655172413793094e-02 0 
8.62068965517241326e-01 6.89655172413793094e-02 0 
8.96551724137931050e-01 6.89655172413793094e-02 0 
9.31034482758620663e-01 6.89655172413793094e-02 0 
9.65517241379310276e-01 6.89655172413793094e-02 0 
1.00000000000000000e+00 6.89655172413793094e-02 0 
0.00000000000000000e+00 0.00000000000000000e+00 0 
5.17241379310344862e-01 1.03448275862068964e-01 0 
5.51724137931034475e-01 1.03448275862068964e-01 0 
5.86206896551724088e-01 1.03448275862068964e-01 0 
6.20689655172413812e-01 1.03448275862068964e-01 0 
6.55172413793103425e-01 1.03448275862068964e-01 0 
6.89655172413793149e-01 1.03448275862068964e-01 0 
7.24137931034482762e-01 1.03448275862068964e-01 0 
7.58620689655172376e-01 1.03448275862068964e-01 0 
7.93103448275862100e-01 1.03448275862068964e-01 0 
8.27586206896551713e-01 1.03448275862068964e-01 0 
8.62068965517241326e-01 1.03448275862068964e-01 0 
8.96551724137931050e-01 1.03448275862068964e-01 0 
9.31034482758620663e-01 1.03448275862068964e-01 0 
9.65517241379310276e-01 1.03448275862068964e-01 0 
1.00000000000000000e+00 1.03448275862068964e-01 0 
0.00000000000000000e+00 0.00000000000000000e+00 0 
5.17241379310344862e-01 1.37931034482758619e-01 0 
5.51724137931034475e-01 1.37931034482758619e-01 0 
5.86206896551724088e-01 1.37931034482758619e-01 0 
6.20689655172413812e-01 1.37931034482758619e-01 0 
6.55172413793103425e-01 1.37931034482758619e-01 0 
6.89655172413793149e-01 1.37931034482758619e-01 0 
7.24137931034482762e-01 1.37931034482758619e-01 0 
7.58620689655172376e-01 1.37931034482758619e-01 0 
7.93103448275862100e-01 1.37931034482758619e-01 0 
8.27586206896551713e-01 1.37931034482758619e-01 0 
8.62068965517241326e-01 1.37931034482758619e-01 0 
8.96551724137931050e-01 1.37931034482758619e-01 0 
9.31034482758620663e-01 1.37931034482758619e-01 0 
9.65517241379310276e-01 1.37931034482758619e-01 0 
1.00000000000000000e+00 1.37931034482758619e-01 0 
0.00000000000000000e+00 0.00000000000000000e+00 0 
5.17241379310344862e-01 1.72413793103448287e-01 0 
5.51724137931034475e-01 1.72413793103448287e-01 0 
5.86206896551724088e-01 1.72413793103448287e-01 0 
6.20689655172413812e-01 1.72413793103448287e-01 0 
6.55172413793103425e-01 1.72413793103448287e-01 0 
6.89655172413793149e-01 1.72413793103448287e-01 0 
7.24137931034482762e-01 1.72413793103448287e-01 0 
7.58620689655172376e-01 1.72413793103448287e-01 0 
7.93103448275862100e-01 1.72413793103448287e-01 0 
8.27586206896551713e-01 1.72413793103448287e-01 0 
8.62068965517241326e-01 1.72413793103448287e-01 0 
8.96551724137931050e-01 1.72413793103448287e-01 0 
9.31034482758620663e-01 1.72413793103448287e-01 0 
9.65517241379310276e-01 1.72413793103448287e-01 0 
1.00000000000000000e+00 1.72413793103448287e-01 0 
0.00000000000000000e+00 0.00000000000000000e+00 0 
5.17241379310344862e-01 2.06896551724137928e-01 0 
5.51724137931034475e-01 2.06896551724137928e-01 0 
5.86206896551724088e-01 2.06896551724137928e-01 0 
6.20689655172413812e-01 2.06896551724137928e-01 0 
6.55172413793103425e-01 2.06896551724137928e-01 0 
6.89655172413793149e-01 2.06896551724137928e-01 0 
7.24137931034482762e-01 2.06896551724137928e-01 0 
7.58620689655172376e-01 2.06896551724137928e-01 0 
7.93103448275862100e-01 2.06896551724137928e-01 0 
8.27586206896551713e-01 2.06896551724137928e-01 0 
8.62068965517241326e-01 2.06896551724137928e-01 0 
8.96551724137931050e-01 2.06896551724137928e-01 0 
9.31034482758620663e-01 2.06896551724137928e-01 0 
9.65517241379310276e-01 2.06896551724137928e-01 0 
1.00000000000000000e+00 2.06896551724137928e-01 0 
0.00000000000000000e+00 0.00000000000000000e+00 0 
5.17241379310344862e-01 2.41379310344827569e-01 0 
5.51724137931034475e-01 2.41379310344827569e-01 0 
5.86206896551724088e-01 2.41379310344827569e-01 0 
6.20689655172413812e-01 2.41379310344827569e-01 0 
6.55172413793103425e-01 2.41379310344827569e-01 0 
6.89655172413793149e-01 2.41379310344827569e-01 0 
7.24137931034482762e-01 2.41379310344827569e-01 0 
7.58620689655172376e-01 2.41379310344827569e-01 0 
7.93103448275862100e-01 2.41379310344827569e-01 0 
8.27586206896551713e-01 2.41379310344827569e-01 0 
8.62068965517241326e-01 2.41379310344827569e-01 0 
8.96551724137931050e-01 2.41379310344827569e-01 0 
9.31034482758620663e-01 2.41379310344827569e-01 0 
9.65517241379310276e-01 2.41379310344827569e-01 0 
1.00000000000000000e+00 2.41379310344827569e-01 0 
0.00000000000000000e+00 0.00000000000000000e+00 0 
5.17241379310344862e-01 2.75862068965517238e-01 0 
5.51724137931034475e-01 2.75862068965517238e-01 0 
5.86206896551724088e-01 2.75862068965517238e-01 0 
6.20689655172413812e-01 2.75862068965517238e-01 0 
6.55172413793103425e-01 2.75862068965517238e-01 0 
6.89655172413793149e-01 2.75862068965517238e-01 0 
7.24137931034482762e-01 2.75862068965517238e-01 0 
7.58620689655172376e-01 2.75862068965517238e-01 0 
7.93103448275862100e-01 2.75862068965517238e-01 0 
8.27586206896551713e-01 2.75862068965517238e-01 0 
8.62068965517241326e-01 2.75862068965517238e-01 0 
8.96551724137931050e-01 2.75862068965517238e-01 0 
9.31034482758620663e-01 2.75862068965517238e-01 0 
9.65517241379310276e-01 2.75862068965517238e-01 0 
1.00000000000000000e+00 2.75862068965517238e-01 0 
0.00000000000000000e+00 0.00000000000000000e+00 0 
5.17241379310344862e-01 3.10344827586206906e-01 0 
5.51724137931034475e-01 3.10344827586206906e-01 0 
5.86206896551724088e-01 3.10344827586206906e-01 0 
6.20689655172413812e-01 3.10344827586206906e-01 0 
6.55172413793103425e-01 3.10344827586206906e-01 0 
6.89655172413793149e-01 3.10344827586206906e-01 0 
7.24137931034482762e-01 3.10344827586206906e-01 0 
7.58620689655172376e-01 3.10344827586206906e-01 0 
7.93103448275862100e-01 3.10344827586206906e-01 0 
8.27586206896551713e-01 3.10344827586206906e-01 0 
8.62068965517241326e-01 3.10344827586206906e-01 0 
8.96551724137931050e-01 3.10344827586206906e-01 0 
9.31034482758620663e-01 3.10344827586206906e-01 0 
9.65517241379310276e-01 3.10344827586206906e-01 0 
1.00000000000000000e+00 3.10344827586206906e-01 0 
0.00000000000000000e+00 0.00000000000000000e+00 0 
5.17241379310344862e-01 3.44827586206896575e-01 0 
5.51724137931034475e-01 3.44827586206896575e-01 0 
5.86206896551724088e-01 3.44827586206896575e-01 0 
6.20689655172413812e-01 3.44827586206896575e-01 0 
6.55172413793103425e-01 3.44827586206896575e-01 0 
6.89655172413793149e-01 3.44827586206896575e-01 0 
7.24137931034482762e-01 3.44827586206896575e-01 0 
7.58620689655172376e-01 3.44827586206896575e-01 0 
7.93103448275862100e-01 3.44827586206896575e-01 0 
8.27586206896551713e-01 3.44827586206896575e-01 0 
8.62068965517241326e-01 3.44827586206896575e-01 0 
8.96551724137931050e-01 3.44827586206896575e-01 0 
9.31034482758620663e-01 3.44827586206896575e-01 0 
9.65517241379310276e-01 3.44827586206896575e-01 0 
1.00000000000000000e+00 3.44827586206896575e-01 0 
0.00000000000000000e+00 0.00000000000000000e+00 0 
5.17241379310344862e-01 3.79310344827586188e-01 0 
5.51724137931034475e-01 3.79310344827586188e-01 0 
5.86206896551724088e-01 3.79310344827586188e-01 0 
6.20689655172413812e-01 3.79310344827586188e-01 0 
6.55172413793103425e-01 3.79310344827586188e-01 0 
6.89655172413793149e-01 3.79310344827586188e-01 0 
7.24137931034482762e-01 3.79310344827586188e-01 0 
7.58620689655172376e-01 3.79310344827586188e-01 0 
7.93103448275862100e-01 3.79310344827586188e-01 0 
8.27586206896551713e-01 3.79310344827586188e-01 0 
8.62068965517241326e-01 3.79310344827586188e-01 0 
8.96551724137931050e-01 3.79310344827586188e-01 0 
9.31034482758620663e-01 3.79310344827586188e-01 0 
9.65517241379310276e-01 3.79310344827586188e-01 0 
1.00000000000000000e+00 3.79310344827586188e-01 0 
0.00000000000000000e+00 0.00000000000000000e+00 0 
5.17241379310344862e-01 4.13793103448275856e-01 0 
5.51724137931034475e-01 4.13793103448275856e-01 0 
5.86206896551724088e-01 4.13793103448275856e-01 0 
6.20689655172413812e-01 4.13793103448275856e-01 0 
6.55172413793103425e-01 4.13793103448275856e-01 0 
6.89655172413793149e-01 4.13793103448275856e-01 0 
7.24137931034482762e-01 4.13793103448275856e-01 0 
7.58620689655172376e-01 4.13793103448275856e-01 0 
7.93103448275862100e-01 4.13793103448275856e-01 0 
8.27586206896551713e-01 4.13793103448275856e-01 0 
8.62068965517241326e-01 4.13793103448275856e-01 0 
8.96551724137931050e-01 4.13793103448275856e-01 0 
9.31034482758620663e-01 4.13793103448275856e-01 0 
9.65517241379310276e-01 4.13793103448275856e-01 0 
1.00000000000000000e+00 4.13793103448275856e-01 0 
0.00000000000000000e+00 0.00000000000000000e+00 0 
5.17241379310344862e-01 4.48275862068965525e-01 0 
5.51724137931034475e-01 4.48275862068965525e-01 0 
5.86206896551724088e-01 4.48275862068965525e-01 0 
6.20689655172413812e-01 4.48275862068965525e-01 0 
6.55172413793103425e-01 4.48275862068965525e-01 0 
6.89655172413793149e-01 4.48275862068965525e-01 0 
7.24137931034482762e-01 4.48275862068965525e-01 0 
7.58620689655172376e-01 4.48275862068965525e-01 0 
7.93103448275862100e-01 4.48275862068965525e-01 0 
8.27586206896551713e-01 4.48275862068965525e-01 0 
8.62068965517241326e-01 4.48275862068965525e-01 0 
8.96551724137931050e-01 4.48275862068965525e-01 0 
9.31034482758620663e-01 4.48275862068965525e-01 0 
9.65517241379310276e-01 4.48275862068965525e-01 0 
1.00000000000000000e+00 4.48275862068965525e-01 0 
0.00000000000000000e+00 0.00000000000000000e+00 0 
5.17241379310344862e-01 4.82758620689655138e-01 0 
5.51724137931034475e-01 4.82758620689655138e-01 0 
5.86206896551724088e-01 4.82758620689655138e-01 0 
6.20689655172413812e-01 4.82758620689655138e-01 0 
6.55172413793103425e-01 4.82758620689655138e-01 0 
6.89655172413793149e-01 4.82758620689655138e-01 0 
7.24137931034482762e-01 4.82758620689655138e-01 0 
7.58620689655172376e-01 4.82758620689655138e-01 0 
7.93103448275862100e-01 4.82758620689655138e-01 0 
8.27586206896551713e-01 4.82758620689655138e-01 0 
8.62068965517241326e-01 4.82758620689655138e-01 0 
8.96551724137931050e-01 4.82758620689655138e-01 0 
9.31034482758620663e-01 4.82758620689655138e-01 0 
9.65517241379310276e-01 4.82758620689655138e-01 0 
1.00000000000000000e+00 4.82758620689655138e-01 0 
0.00000000000000000e+00 0.00000000000000000e+00 0 
0.00000000000000000e+00 0.00000000000000000e+00 0 
0.00000000000000000e+00 0.00000000000000000e+00 0 
0.00000000000000000e+00 0.00000000000000000e+00 0 
0.00000000000000000e+00 0.00000000000000000e+00 0 
0.00000000000000000e+00 0.00000000000000000e+00 0 
0.00000000000000000e+00 0.00000000000000000e+00 0 
0.00000000000000000e+00 0.00000000000000000e+00 0 
0.00000000000000000e+00 0.00000000000000000e+00 0 
0.00000000000000000e+00 0.00000000000000000e+00 0 
0.00000000000000000e+00 0.00000000000000000e+00 0 
0.00000000000000000e+00 0.00000000000000000e+00 0 
0.00000000000000000e+00 0.00000000000000000e+00 0 
0.00000000000000000e+00 0.00000000000000000e+00 0 
0.00000000000000000e+00 0.00000000000000000e+00 0 
0.00000000000000000e+00 0.00000000000000000e+00 0 
</DataArray>
</Points>
<PointData>
<DataArray type="Float64" Name="heat" NumberOfComponents="1" format="ascii">
0.00000000000000000e+00
1.66753864447086775e+00
1.70439952437574194e+00
1.74363852556480192e+00
1.78525564803804770e+00
1.82925089179548106e+00
1.87562425683709799e+00
1.92437574316289850e+00
1.97550535077288836e+00
2.02901307966705868e+00
2.08489892984542191e+00
2.14316290130796538e+00
2.20380499405469665e+00
2.26682520808561128e+00
2.33222354340071236e+00
2.39999999999999725e+00
0.00000000000000000e+00
1.66991676575505377e+00
1.70677764565992818e+00
1.74601664684898861e+00
1.78763376932223617e+00
1.83162901307966863e+00
1.87800237812128490e+00
1.92675386444708807e+00
1.97788347205707504e+00
2.03139120095124825e+00
2.08727705112960749e+00
2.14554102259214963e+00
2.20618311533887912e+00
2.26920332936979552e+00
2.33460166468489794e+00
2.40237812128418504e+00
0.00000000000000000e+00
1.67705112960760960e+00
1.71391200951248535e+00
1.75315101070154622e+00
1.79476813317479311e+00
1.83876337693222425e+00
1.88513674197384096e+00
1.93388822829964457e+00
1.98501783590963199e+00
2.03852556480380587e+00
2.09441141498216554e+00
2.15267538644470680e+00
2.21331747919143718e+00
2.27633769322235491e+00
2.34173602853745422e+00
2.40951248513674043e+00
0.00000000000000000e+00
1.68894173602853770e+00
1.72580261593341189e+00
1.76504161712247321e+00
1.80665873959572010e+00
1.85065398335315234e+00
1.89702734839476816e+00
1.94577883472057134e+00
1.99690844233055853e+00
2.05041617122473196e+00
2.10630202140309075e+00
2.16456599286563423e+00
2.22520808561236549e+00
2.28822829964328012e+00
2.35362663495838209e+00
2.42140309155766831e+00
0.00000000000000000e+00
1.70558858501783495e+00
1.74244946492270913e+00
1.78168846611177001e+00
1.82330558858501846e+00
1.86730083234245159e+00
1.91367419738406763e+00
1.96242568370986881e+00
2.01355529131985733e+00
2.06706302021403099e+00
2.12294887039238800e+00
2.18121284185493547e+00
2.24185493460166319e+00
2.30487514863258047e+00
2.37027348394767889e+00
2.43804994054696378e+00
0.00000000000000000e+00
1.72699167657550401e+00
1.76385255648037909e+00
1.80309155766944063e+00
1.84470868014268574e+00
1.88870392390012065e+00
1.93507728894173670e+00
1.98382877526753854e+00
2.03495838287752751e+00
2.08846611177169761e+00
2.14435196195005950e+00
2.20261593341260387e+00
2.26325802615933513e+00
2.32627824019025020e+00
2.39167657550534951e+00
2.45945303210463573e+00
0.00000000000000000e+00
1.75315101070154666e+00
1.79001189060641996e+00
1.82925089179547973e+00
1.87086801426872817e+00
1.91486325802615953e+00
1.96123662306777624e+00
2.00998810939357941e+00
2.06111771700356705e+00
2.11462544589773893e+00
2.17051129607609994e+00
2.22877526753864386e+00
2.28941736028537468e+00
2.35243757431629108e+00
2.41783590963138995e+00
2.48561236623067749e+00
0.00000000000000000e+00
1.78406658739595891e+00
1.82092746730083155e+00
1.86016646848989176e+00
1.90178359096313776e+00
1.94577883472057001e+00
1.99215219976218672e+00
2.04090368608799189e+00
2.09203329369797864e+00
2.14554102259215140e+00
2.20142687277051063e+00
2.25969084423305588e+00
2.32033293697978715e+00
2.38335315101070222e+00
2.44875148632580375e+00
2.51652794292508775e+00
0.00000000000000000e+00
1.81973840665874120e+00
1.85659928656361539e+00
1.89583828775267516e+00
1.93745541022592049e+00
1.98145065398335296e+00
2.02782401902496989e+00
2.07657550535077196e+00
2.12770511296076137e+00
2.18121284185493680e+00
2.23709869203329248e+00
2.29536266349584039e+00
2.35600475624256811e+00
2.41902497027348318e+00
2.48442330558858648e+00
2.55219976218786737e+00
0.00000000000000000e+00
1.86016646848989398e+00
1.89702734839476950e+00
1.93626634958382970e+00
1.97788347205707593e+00
2.02187871581450462e+00
2.06825208085612244e+00
2.11700356718192539e+00
2.16813317479191570e+00
2.22164090368609068e+00
2.27752675386444636e+00
2.33579072532699206e+00
2.39643281807372066e+00
2.45945303210463750e+00
2.52485136741973815e+00
2.59262782401902436e+00
0.00000000000000000e+00
1.90535077288941879e+00
1.94221165279429275e+00
1.98145065398335318e+00
2.02306777645660052e+00
2.06706302021403232e+00
2.11343638525564881e+00
2.16218787158144998e+00
2.21331747919143984e+00
2.26682520808561083e+00
2.32271105826396917e+00
2.38097502972651576e+00
2.44161712247324525e+00
2.50463733650416298e+00
2.57003567181926229e+00
2.63781212841854806e+00
0.00000000000000000e+00
1.95529131985731341e+00
1.99215219976218805e+00
2.03139120095124870e+00
2.07300832342449493e+00
2.11700356718192673e+00
2.16337693222354366e+00
2.21212841854934616e+00
2.26325802615933425e+00
2.31676575505350835e+00
2.37265160523186713e+00
2.43091557669441016e+00
2.49155766944114054e+00
2.55457788347205739e+00
2.61997621878715536e+00
2.68775267538644247e+00
0.00000000000000000e+00
2.00998810939357986e+00
2.04684898929845316e+00
2.08608799048751514e+00
2.12770511296076048e+00
2.17170035671819139e+00
2.21807372175980921e+00
2.26682520808561438e+00
2.31795481569560247e+00
2.37146254458977301e+00
2.42734839476813313e+00
2.48561236623068016e+00
2.54625445897741098e+00
2.60927467300832205e+00
2.67467300832342314e+00
2.74244946492270669e+00
0.00000000000000000e+00
2.06944114149821523e+00
2.10630202140309075e+00
2.14554102259215318e+00
2.18715814506539985e+00
2.23115338882283032e+00
2.27752675386444681e+00
2.32627824019025109e+00
2.37740784780024006e+00
2.43091557669441105e+00
2.48680142687277028e+00
2.54506539833531731e+00
2.60570749108204547e+00
2.66872770511295965e+00
2.73412604042806384e+00
2.80190249702734739e+00
0.00000000000000000e+00
2.13365041617122619e+00
2.17051129607609949e+00
2.20975029726516192e+00
2.25136741973840726e+00
2.29536266349584261e+00
2.34173602853745288e+00
2.39048751486325672e+00
2.44161712247324481e+00
2.49512485136741935e+00
2.55101070154577902e+00
2.60927467300832339e+00
2.66991676575505110e+00
2.73293697978596928e+00
2.79833531510106814e+00
2.86611177170035525e+00
0.00000000000000000e+00
0.00000000000000000e+00
0.00000000000000000e+00
0.00000000000000000e+00
0.00000000000000000e+00
0.00000000000000000e+00
0.00000000000000000e+00
0.00000000000000000e+00
0.00000000000000000e+00
0.00000000000000000e+00
0.00000000000000000e+00
0.00000000000000000e+00
0.00000000000000000e+00
0.00000000000000000e+00
0.00000000000000000e+00
0.00000000000000000e+00
</DataArray>
</PointData>
</Piece>
</StructuredGrid>
</VTKFile>
