<?xml version="1.0"?>
<VTKFile type="StructuredGrid">
<StructuredGrid WholeExtent="14 29 14 29 0 0 ">
<Piece Extent="14 29 14 29 0 0 ">
<Points>
<DataArray type="Float64" Name="coordinate" NumberOfComponents="3" format="ascii">
0.00000000000000000e+00 0.00000000000000000e+00 0 
0.00000000000000000e+00 0.00000000000000000e+00 0 
0.00000000000000000e+00 0.00000000000000000e+00 0 
0.00000000000000000e+00 0.00000000000000000e+00 0 
0.00000000000000000e+00 0.00000000000000000e+00 0 
0.00000000000000000e+00 0.00000000000000000e+00 0 
0.00000000000000000e+00 0.00000000000000000e+00 0 
0.00000000000000000e+00 0.00000000000000000e+00 0 
0.00000000000000000e+00 0.00000000000000000e+00 0 
0.00000000000000000e+00 0.00000000000000000e+00 0 
0.00000000000000000e+00 0.00000000000000000e+00 0 
0.00000000000000000e+00 0.00000000000000000e+00 0 
0.00000000000000000e+00 0.00000000000000000e+00 0 
0.00000000000000000e+00 0.00000000000000000e+00 0 
0.00000000000000000e+00 0.00000000000000000e+00 0 
0.00000000000000000e+00 0.00000000000000000e+00 0 
0.00000000000000000e+00 0.00000000000000000e+00 0 
5.17241379310344862e-01 5.17241379310344862e-01 0 
5.51724137931034475e-01 5.17241379310344862e-01 0 
5.86206896551724088e-01 5.17241379310344862e-01 0 
6.20689655172413812e-01 5.17241379310344862e-01 0 
6.55172413793103425e-01 5.17241379310344862e-01 0 
6.89655172413793149e-01 5.17241379310344862e-01 0 
7.24137931034482762e-01 5.17241379310344862e-01 0 
7.58620689655172376e-01 5.17241379310344862e-01 0 
7.93103448275862100e-01 5.17241379310344862e-01 0 
8.27586206896551713e-01 5.17241379310344862e-01 0 
8.62068965517241326e-01 5.17241379310344862e-01 0 
8.96551724137931050e-01 5.17241379310344862e-01 0 
9.31034482758620663e-01 5.17241379310344862e-01 0 
9.65517241379310276e-01 5.17241379310344862e-01 0 
1.00000000000000000e+00 5.17241379310344862e-01 0 
0.00000000000000000e+00 0.00000000000000000e+00 0 
5.17241379310344862e-01 5.51724137931034475e-01 0 
5.51724137931034475e-01 5.51724137931034475e-01 0 
5.86206896551724088e-01 5.51724137931034475e-01 0 
6.20689655172413812e-01 5.51724137931034475e-01 0 
6.55172413793103425e-01 5.51724137931034475e-01 0 
6.89655172413793149e-01 5.51724137931034475e-01 0 
7.24137931034482762e-01 5.51724137931034475e-01 0 
7.58620689655172376e-01 5.51724137931034475e-01 0 
7.93103448275862100e-01 5.51724137931034475e-01 0 
8.27586206896551713e-01 5.51724137931034475e-01 0 
8.62068965517241326e-01 5.51724137931034475e-01 0 
8.96551724137931050e-01 5.51724137931034475e-01 0 
9.31034482758620663e-01 5.51724137931034475e-01 0 
9.65517241379310276e-01 5.51724137931034475e-01 0 
1.00000000000000000e+00 5.51724137931034475e-01 0 
0.00000000000000000e+00 0.00000000000000000e+00 0 
5.17241379310344862e-01 5.86206896551724088e-01 0 
5.51724137931034475e-01 5.86206896551724088e-01 0 
5.86206896551724088e-01 5.86206896551724088e-01 0 
6.20689655172413812e-01 5.86206896551724088e-01 0 
6.55172413793103425e-01 5.86206896551724088e-01 0 
6.89655172413793149e-01 5.86206896551724088e-01 0 
7.24137931034482762e-01 5.86206896551724088e-01 0 
7.58620689655172376e-01 5.86206896551724088e-01 0 
7.93103448275862100e-01 5.86206896551724088e-01 0 
8.27586206896551713e-01 5.86206896551724088e-01 0 
8.62068965517241326e-01 5.86206896551724088e-01 0 
8.96551724137931050e-01 5.86206896551724088e-01 0 
9.31034482758620663e-01 5.86206896551724088e-01 0 
9.65517241379310276e-01 5.86206896551724088e-01 0 
1.00000000000000000e+00 5.86206896551724088e-01 0 
0.00000000000000000e+00 0.00000000000000000e+00 0 
5.17241379310344862e-01 6.20689655172413812e-01 0 
5.51724137931034475e-01 6.20689655172413812e-01 0 
5.86206896551724088e-01 6.20689655172413812e-01 0 
6.20689655172413812e-01 6.20689655172413812e-01 0 
6.55172413793103425e-01 6.20689655172413812e-01 0 
6.89655172413793149e-01 6.20689655172413812e-01 0 
7.24137931034482762e-01 6.20689655172413812e-01 0 
7.58620689655172376e-01 6.20689655172413812e-01 0 
7.93103448275862100e-01 6.20689655172413812e-01 0 
8.27586206896551713e-01 6.20689655172413812e-01 0 
8.62068965517241326e-01 6.20689655172413812e-01 0 
8.96551724137931050e-01 6.20689655172413812e-01 0 
9.31034482758620663e-01 6.20689655172413812e-01 0 
9.65517241379310276e-01 6.20689655172413812e-01 0 
1.00000000000000000e+00 6.20689655172413812e-01 0 
0.00000000000000000e+00 0.00000000000000000e+00 0 
5.17241379310344862e-01 6.55172413793103425e-01 0 
5.51724137931034475e-01 6.55172413793103425e-01 0 
5.86206896551724088e-01 6.55172413793103425e-01 0 
6.20689655172413812e-01 6.55172413793103425e-01 0 
6.55172413793103425e-01 6.55172413793103425e-01 0 
6.89655172413793149e-01 6.55172413793103425e-01 0 
7.24137931034482762e-01 6.55172413793103425e-01 0 
7.58620689655172376e-01 6.55172413793103425e-01 0 
7.93103448275862100e-01 6.55172413793103425e-01 0 
8.27586206896551713e-01 6.55172413793103425e-01 0 
8.62068965517241326e-01 6.55172413793103425e-01 0 
8.96551724137931050e-01 6.55172413793103425e-01 0 
9.31034482758620663e-01 6.55172413793103425e-01 0 
9.65517241379310276e-01 6.55172413793103425e-01 0 
1.00000000000000000e+00 6.55172413793103425e-01 0 
0.00000000000000000e+00 0.00000000000000000e+00 0 
5.17241379310344862e-01 6.89655172413793149e-01 0 
5.51724137931034475e-01 6.89655172413793149e-01 0 
5.86206896551724088e-01 6.89655172413793149e-01 0 
6.20689655172413812e-01 6.89655172413793149e-01 0 
6.55172413793103425e-01 6.89655172413793149e-01 0 
6.89655172413793149e-01 6.89655172413793149e-01 0 
7.24137931034482762e-01 6.89655172413793149e-01 0 
7.58620689655172376e-01 6.89655172413793149e-01 0 
7.93103448275862100e-01 6.89655172413793149e-01 0 
8.27586206896551713e-01 6.89655172413793149e-01 0 
8.62068965517241326e-01 6.89655172413793149e-01 0 
8.96551724137931050e-01 6.89655172413793149e-01 0 
9.31034482758620663e-01 6.89655172413793149e-01 0 
9.65517241379310276e-01 6.89655172413793149e-01 0 
1.00000000000000000e+00 6.89655172413793149e-01 0 
0.00000000000000000e+00 0.00000000000000000e+00 0 
5.17241379310344862e-01 7.24137931034482762e-01 0 
5.51724137931034475e-01 7.24137931034482762e-01 0 
5.86206896551724088e-01 7.24137931034482762e-01 0 
6.20689655172413812e-01 7.24137931034482762e-01 0 
6.55172413793103425e-01 7.24137931034482762e-01 0 
6.89655172413793149e-01 7.24137931034482762e-01 0 
7.24137931034482762e-01 7.24137931034482762e-01 0 
7.58620689655172376e-01 7.24137931034482762e-01 0 
7.93103448275862100e-01 7.24137931034482762e-01 0 
8.27586206896551713e-01 7.24137931034482762e-01 0 
8.62068965517241326e-01 7.24137931034482762e-01 0 
8.96551724137931050e-01 7.24137931034482762e-01 0 
9.31034482758620663e-01 7.24137931034482762e-01 0 
9.65517241379310276e-01 7.24137931034482762e-01 0 
1.00000000000000000e+00 7.24137931034482762e-01 0 
0.00000000000000000e+00 0.00000000000000000e+00 0 
5.17241379310344862e-01 7.58620689655172376e-01 0 
5.51724137931034475e-01 7.58620689655172376e-01 0 
5.86206896551724088e-01 7.58620689655172376e-01 0 
6.20689655172413812e-01 7.58620689655172376e-01 0 
6.55172413793103425e-01 7.58620689655172376e-01 0 
6.89655172413793149e-01 7.58620689655172376e-01 0 
7.24137931034482762e-01 7.58620689655172376e-01 0 
7.58620689655172376e-01 7.58620689655172376e-01 0 
7.93103448275862100e-01 7.58620689655172376e-01 0 
8.27586206896551713e-01 7.58620689655172376e-01 0 
8.62068965517241326e-01 7.58620689655172376e-01 0 
8.96551724137931050e-01 7.58620689655172376e-01 0 
9.31034482758620663e-01 7.58620689655172376e-01 0 
9.65517241379310276e-01 7.58620689655172376e-01 0 
1.00000000000000000e+00 7.58620689655172376e-01 0 
0.00000000000000000e+00 0.00000000000000000e+00 0 
5.17241379310344862e-01 7.93103448275862100e-01 0 
5.51724137931034475e-01 7.93103448275862100e-01 0 
5.86206896551724088e-01 7.93103448275862100e-01 0 
6.20689655172413812e-01 7.93103448275862100e-01 0 
6.55172413793103425e-01 7.93103448275862100e-01 0 
6.89655172413793149e-01 7.93103448275862100e-01 0 
7.24137931034482762e-01 7.93103448275862100e-01 0 
7.58620689655172376e-01 7.93103448275862100e-01 0 
7.93103448275862100e-01 7.93103448275862100e-01 0 
8.27586206896551713e-01 7.93103448275862100e-01 0 
8.62068965517241326e-01 7.93103448275862100e-01 0 
8.96551724137931050e-01 7.93103448275862100e-01 0 
9.31034482758620663e-01 7.93103448275862100e-01 0 
9.65517241379310276e-01 7.93103448275862100e-01 0 
1.00000000000000000e+00 7.93103448275862100e-01 0 
0.00000000000000000e+00 0.00000000000000000e+00 0 
5.17241379310344862e-01 8.27586206896551713e-01 0 
5.51724137931034475e-01 8.27586206896551713e-01 0 
5.86206896551724088e-01 8.27586206896551713e-01 0 
6.20689655172413812e-01 8.27586206896551713e-01 0 
6.55172413793103425e-01 8.27586206896551713e-01 0 
6.89655172413793149e-01 8.27586206896551713e-01 0 
7.24137931034482762e-01 8.27586206896551713e-01 0 
7.58620689655172376e-01 8.27586206896551713e-01 0 
7.93103448275862100e-01 8.27586206896551713e-01 0 
8.27586206896551713e-01 8.27586206896551713e-01 0 
8.62068965517241326e-01 8.27586206896551713e-01 0 
8.96551724137931050e-01 8.27586206896551713e-01 0 
9.31034482758620663e-01 8.27586206896551713e-01 0 
9.65517241379310276e-01 8.27586206896551713e-01 0 
1.00000000000000000e+00 8.27586206896551713e-01 0 
0.00000000000000000e+00 0.00000000000000000e+00 0 
5.17241379310344862e-01 8.62068965517241326e-01 0 
5.51724137931034475e-01 8.62068965517241326e-01 0 
5.86206896551724088e-01 8.62068965517241326e-01 0 
6.20689655172413812e-01 8.62068965517241326e-01 0 
6.55172413793103425e-01 8.62068965517241326e-01 0 
6.89655172413793149e-01 8.62068965517241326e-01 0 
7.24137931034482762e-01 8.62068965517241326e-01 0 
7.58620689655172376e-01 8.62068965517241326e-01 0 
7.93103448275862100e-01 8.62068965517241326e-01 0 
8.27586206896551713e-01 8.62068965517241326e-01 0 
8.62068965517241326e-01 8.62068965517241326e-01 0 
8.96551724137931050e-01 8.62068965517241326e-01 0 
9.31034482758620663e-01 8.62068965517241326e-01 0 
9.65517241379310276e-01 8.62068965517241326e-01 0 
1.00000000000000000e+00 8.62068965517241326e-01 0 
0.00000000000000000e+00 0.00000000000000000e+00 0 
5.17241379310344862e-01 8.96551724137931050e-01 0 
5.51724137931034475e-01 8.96551724137931050e-01 0 
5.86206896551724088e-01 8.96551724137931050e-01 0 
6.20689655172413812e-01 8.96551724137931050e-01 0 
6.55172413793103425e-01 8.96551724137931050e-01 0 
6.89655172413793149e-01 8.96551724137931050e-01 0 
7.24137931034482762e-01 8.96551724137931050e-01 0 
7.58620689655172376e-01 8.96551724137931050e-01 0 
7.93103448275862100e-01 8.96551724137931050e-01 0 
8.27586206896551713e-01 8.96551724137931050e-01 0 
8.62068965517241326e-01 8.96551724137931050e-01 0 
8.96551724137931050e-01 8.96551724137931050e-01 0 
9.31034482758620663e-01 8.96551724137931050e-01 0 
9.65517241379310276e-01 8.96551724137931050e-01 0 
1.00000000000000000e+00 8.96551724137931050e-01 0 
0.00000000000000000e+00 0.00000000000000000e+00 0 
5.17241379310344862e-01 9.31034482758620663e-01 0 
5.51724137931034475e-01 9.31034482758620663e-01 0 
5.86206896551724088e-01 9.31034482758620663e-01 0 
6.20689655172413812e-01 9.31034482758620663e-01 0 
6.55172413793103425e-01 9.31034482758620663e-01 0 
6.89655172413793149e-01 9.31034482758620663e-01 0 
7.24137931034482762e-01 9.31034482758620663e-01 0 
7.58620689655172376e-01 9.31034482758620663e-01 0 
7.93103448275862100e-01 9.31034482758620663e-01 0 
8.27586206896551713e-01 9.31034482758620663e-01 0 
8.62068965517241326e-01 9.31034482758620663e-01 0 
8.96551724137931050e-01 9.31034482758620663e-01 0 
9.31034482758620663e-01 9.31034482758620663e-01 0 
9.65517241379310276e-01 9.31034482758620663e-01 0 
1.00000000000000000e+00 9.31034482758620663e-01 0 
0.00000000000000000e+00 0.00000000000000000e+00 0 
5.17241379310344862e-01 9.65517241379310276e-01 0 
5.51724137931034475e-01 9.65517241379310276e-01 0 
5.86206896551724088e-01 9.65517241379310276e-01 0 
6.20689655172413812e-01 9.65517241379310276e-01 0 
6.55172413793103425e-01 9.65517241379310276e-01 0 
6.89655172413793149e-01 9.65517241379310276e-01 0 
7.24137931034482762e-01 9.65517241379310276e-01 0 
7.58620689655172376e-01 9.65517241379310276e-01 0 
7.93103448275862100e-01 9.65517241379310276e-01 0 
8.27586206896551713e-01 9.65517241379310276e-01 0 
8.62068965517241326e-01 9.65517241379310276e-01 0 
8.96551724137931050e-01 9.65517241379310276e-01 0 
9.31034482758620663e-01 9.65517241379310276e-01 0 
9.65517241379310276e-01 9.65517241379310276e-01 0 
1.00000000000000000e+00 9.65517241379310276e-01 0 
0.00000000000000000e+00 0.00000000000000000e+00 0 
5.17241379310344862e-01 1.00000000000000000e+00 0 
5.51724137931034475e-01 1.00000000000000000e+00 0 
5.86206896551724088e-01 1.00000000000000000e+00 0 
6.20689655172413812e-01 1.00000000000000000e+00 0 
6.55172413793103425e-01 1.00000000000000000e+00 0 
6.89655172413793149e-01 1.00000000000000000e+00 0 
7.24137931034482762e-01 1.00000000000000000e+00 0 
7.58620689655172376e-01 1.00000000000000000e+00 0 
7.93103448275862100e-01 1.00000000000000000e+00 0 
8.27586206896551713e-01 1.00000000000000000e+00 0 
8.62068965517241326e-01 1.00000000000000000e+00 0 
8.96551724137931050e-01 1.00000000000000000e+00 0 
9.31034482758620663e-01 1.00000000000000000e+00 0 
9.65517241379310276e-01 1.00000000000000000e+00 0 
1.00000000000000000e+00 1.00000000000000000e+00 0 
</DataArray>
</Points>
<PointData>
<DataArray type="Float64" Name="heat" NumberOfComponents="1" format="ascii">
0.00000000000000000e+00
0.00000000000000000e+00
0.00000000000000000e+00
0.00000000000000000e+00
0.00000000000000000e+00
0.00000000000000000e+00
0.00000000000000000e+00
0.00000000000000000e+00
0.00000000000000000e+00
0.00000000000000000e+00
0.00000000000000000e+00
0.00000000000000000e+00
0.00000000000000000e+00
0.00000000000000000e+00
0.00000000000000000e+00
0.00000000000000000e+00
0.00000000000000000e+00
4.60261593341260777e+00
4.63947681331747930e+00
4.67871581450654173e+00
4.72033293697978973e+00
4.76432818073721709e+00
4.81070154577883891e+00
4.85945303210463564e+00
4.91058263971462505e+00
4.96409036860880182e+00
5.01997621878715616e+00
5.07824019024970497e+00
5.13888228299643668e+00
5.20190249702734686e+00
5.26730083234244528e+00
5.33507728894173283e+00
0.00000000000000000e+00
4.67633769322235704e+00
4.71319857312723567e+00
4.75243757431629366e+00
4.79405469678953633e+00
4.83804994054696902e+00
4.88442330558858551e+00
4.93317479191439023e+00
4.98430439952437609e+00
5.03781212841854664e+00
5.09369797859690454e+00
5.15196195005945512e+00
5.21260404280618683e+00
5.27562425683710057e+00
5.34102259215220343e+00
5.40879904875148210e+00
0.00000000000000000e+00
4.75481569560047834e+00
4.79167657550534987e+00
4.83091557669441496e+00
4.87253269916766119e+00
4.91652794292509210e+00
4.96290130796670326e+00
5.01165279429251243e+00
5.06278240190249740e+00
5.11629013079666795e+00
5.17217598097502762e+00
5.23043995243757731e+00
5.29108204518430547e+00
5.35410225921521565e+00
5.41950059453032384e+00
5.48727705112960962e+00
0.00000000000000000e+00
4.83804994054696635e+00
4.87491082045184676e+00
4.91414982164090564e+00
4.95576694411415097e+00
4.99976218787158189e+00
5.04613555291320015e+00
5.09488703923900399e+00
5.14601664684898807e+00
5.19952437574316129e+00
5.25541022592152185e+00
5.31367419738406888e+00
5.37431629013079881e+00
5.43733650416171077e+00
5.50273483947680564e+00
5.57051129607609852e+00
0.00000000000000000e+00
4.92604042806183173e+00
4.96290130796671036e+00
5.00214030915577368e+00
5.04375743162902079e+00
5.08775267538644194e+00
5.13412604042806109e+00
5.18287752675386226e+00
5.23400713436385434e+00
5.28751486325802666e+00
5.34340071343638634e+00
5.40166468489892981e+00
5.46230677764565886e+00
5.52532699167657704e+00
5.59072532699167812e+00
5.65850178359095857e+00
0.00000000000000000e+00
5.01878715814506382e+00
5.05564803804994334e+00
5.09488703923900399e+00
5.13650416171224666e+00
5.18049940546967491e+00
5.22687277051129584e+00
5.27562425683709701e+00
5.32675386444708820e+00
5.38026159334125431e+00
5.43614744351961576e+00
5.49441141498216812e+00
5.55505350772889095e+00
5.61807372175980735e+00
5.68347205707491376e+00
5.75124851367419332e+00
0.00000000000000000e+00
5.11629013079666706e+00
5.15315101070154569e+00
5.19239001189061078e+00
5.23400713436384990e+00
5.27800237812129058e+00
5.32437574316290352e+00
5.37312722948869936e+00
5.42425683709869411e+00
5.47776456599286377e+00
5.53365041617122522e+00
5.59191438763376958e+00
5.65255648038049952e+00
5.71557669441141591e+00
5.78097502972652322e+00
5.84875148632580366e+00
0.00000000000000000e+00
5.21854934601664766e+00
5.25541022592152363e+00
5.29464922711058428e+00
5.33626634958382429e+00
5.38026159334126319e+00
5.42663495838287702e+00
5.47538644470868174e+00
5.52651605231867027e+00
5.58002378121284082e+00
5.63590963139119872e+00
5.69417360285374929e+00
5.75481569560047834e+00
5.81783590963139297e+00
5.88323424494649228e+00
5.95101070154577183e+00
0.00000000000000000e+00
5.32556480380499497e+00
5.36242568370986739e+00
5.40166468489893248e+00
5.44328180737217515e+00
5.48727705112960962e+00
5.53365041617122699e+00
5.58240190249702728e+00
5.63353151010701847e+00
5.68703923900118369e+00
5.74292508917954514e+00
5.80118906064208950e+00
5.86183115338882299e+00
5.92485136741974117e+00
5.99024970273484136e+00
6.05802615933412270e+00
0.00000000000000000e+00
5.43733650416171255e+00
5.47419738406658674e+00
5.51343638525565183e+00
5.55505350772889450e+00
5.59904875148632719e+00
5.64542211652794190e+00
5.69417360285374752e+00
5.74530321046373160e+00
5.79881093935790748e+00
5.85469678953626715e+00
5.91296076099881063e+00
5.97360285374553968e+00
6.03662306777645341e+00
6.10202140309155805e+00
6.16979785969084027e+00
0.00000000000000000e+00
5.55386444708680127e+00
5.59072532699167635e+00
5.62996432818073611e+00
5.67158145065398234e+00
5.71557669441141147e+00
5.76195005945303151e+00
5.81070154577883535e+00
5.86183115338882210e+00
5.91533888228299531e+00
5.97122473246135677e+00
6.02948870392389935e+00
6.09013079667062929e+00
6.15315101070154657e+00
6.21854934601664322e+00
6.28632580261592633e+00
0.00000000000000000e+00
5.67514863258026114e+00
5.71200951248513622e+00
5.75124851367419776e+00
5.79286563614744132e+00
5.83686087990487579e+00
5.88323424494649139e+00
5.93198573127229878e+00
5.98311533888228197e+00
6.03662306777645608e+00
6.09250891795481042e+00
6.15077288941735745e+00
6.21141498216409271e+00
6.27443519619500556e+00
6.33983353151010753e+00
6.40760998810938975e+00
0.00000000000000000e+00
5.80118906064209039e+00
5.83804994054697346e+00
5.87728894173602612e+00
5.91890606420927856e+00
5.96290130796670059e+00
6.00927467300831530e+00
6.05802615933412625e+00
6.10915576694411833e+00
6.16266349583828887e+00
6.21854934601664766e+00
6.27681331747919558e+00
6.33745541022592818e+00
6.40047562425684013e+00
6.46587395957193856e+00
6.53365041617121989e+00
0.00000000000000000e+00
5.93198573127229434e+00
5.96884661117716586e+00
6.00808561236622918e+00
6.04970273483947274e+00
6.09369797859691165e+00
6.14007134363852458e+00
6.18882282996432842e+00
6.23995243757431428e+00
6.29346016646849193e+00
6.34934601664684894e+00
6.40760998810939331e+00
6.46825208085612058e+00
6.53127229488704053e+00
6.59667063020214428e+00
6.66444708680142206e+00
0.00000000000000000e+00
6.06753864447086855e+00
6.10439952437573830e+00
6.14363852556480072e+00
6.18525564803804961e+00
6.22925089179548230e+00
6.27562425683709968e+00
6.32437574316290174e+00
6.37550535077288405e+00
6.42901307966706081e+00
6.48489892984542315e+00
6.54316290130796041e+00
6.60380499405469035e+00
6.66682520808560675e+00
6.73222354340070606e+00
6.79999999999999272e+00
</DataArray>
</PointData>
</Piece>
</StructuredGrid>
</VTKFile>
