<?xml version="1.0"?>
<VTKFile type="StructuredGrid">
<StructuredGrid WholeExtent="0 15 0 15 0 0 ">
<Piece Extent="0 15 0 15 0 0 ">
<Points>
<DataArray type="Float64" Name="coordinate" NumberOfComponents="3" format="ascii">
0.00000000000000000e+00 0.00000000000000000e+00 0 
3.44827586206896547e-02 0.00000000000000000e+00 0 
6.89655172413793094e-02 0.00000000000000000e+00 0 
1.03448275862068964e-01 0.00000000000000000e+00 0 
1.37931034482758619e-01 0.00000000000000000e+00 0 
1.72413793103448287e-01 0.00000000000000000e+00 0 
2.06896551724137928e-01 0.00000000000000000e+00 0 
2.41379310344827569e-01 0.00000000000000000e+00 0 
2.75862068965517238e-01 0.00000000000000000e+00 0 
3.10344827586206906e-01 0.00000000000000000e+00 0 
3.44827586206896575e-01 0.00000000000000000e+00 0 
3.79310344827586188e-01 0.00000000000000000e+00 0 
4.13793103448275856e-01 0.00000000000000000e+00 0 
4.48275862068965525e-01 0.00000000000000000e+00 0 
4.82758620689655138e-01 0.00000000000000000e+00 0 
0.00000000000000000e+00 0.00000000000000000e+00 0 
0.00000000000000000e+00 3.44827586206896547e-02 0 
3.44827586206896547e-02 3.44827586206896547e-02 0 
6.89655172413793094e-02 3.44827586206896547e-02 0 
1.03448275862068964e-01 3.44827586206896547e-02 0 
1.37931034482758619e-01 3.44827586206896547e-02 0 
1.72413793103448287e-01 3.44827586206896547e-02 0 
2.06896551724137928e-01 3.44827586206896547e-02 0 
2.41379310344827569e-01 3.44827586206896547e-02 0 
2.75862068965517238e-01 3.44827586206896547e-02 0 
3.10344827586206906e-01 3.44827586206896547e-02 0 
3.44827586206896575e-01 3.44827586206896547e-02 0 
3.79310344827586188e-01 3.44827586206896547e-02 0 
4.13793103448275856e-01 3.44827586206896547e-02 0 
4.48275862068965525e-01 3.44827586206896547e-02 0 
4.82758620689655138e-01 3.44827586206896547e-02 0 
0.00000000000000000e+00 0.00000000000000000e+00 0 
0.00000000000000000e+00 6.89655172413793094e-02 0 
3.44827586206896547e-02 6.89655172413793094e-02 0 
6.89655172413793094e-02 6.89655172413793094e-02 0 
1.03448275862068964e-01 6.89655172413793094e-02 0 
1.37931034482758619e-01 6.89655172413793094e-02 0 
1.72413793103448287e-01 6.89655172413793094e-02 0 
2.06896551724137928e-01 6.89655172413793094e-02 0 
2.41379310344827569e-01 6.89655172413793094e-02 0 
2.75862068965517238e-01 6.89655172413793094e-02 0 
3.10344827586206906e-01 6.89655172413793094e-02 0 
3.44827586206896575e-01 6.89655172413793094e-02 0 
3.79310344827586188e-01 6.89655172413793094e-02 0 
4.13793103448275856e-01 6.89655172413793094e-02 0 
4.48275862068965525e-01 6.89655172413793094e-02 0 
4.82758620689655138e-01 6.89655172413793094e-02 0 
0.00000000000000000e+00 0.00000000000000000e+00 0 
0.00000000000000000e+00 1.03448275862068964e-01 0 
3.44827586206896547e-02 1.03448275862068964e-01 0 
6.89655172413793094e-02 1.03448275862068964e-01 0 
1.03448275862068964e-01 1.03448275862068964e-01 0 
1.37931034482758619e-01 1.03448275862068964e-01 0 
1.72413793103448287e-01 1.03448275862068964e-01 0 
2.06896551724137928e-01 1.03448275862068964e-01 0 
2.41379310344827569e-01 1.03448275862068964e-01 0 
2.75862068965517238e-01 1.03448275862068964e-01 0 
3.10344827586206906e-01 1.03448275862068964e-01 0 
3.44827586206896575e-01 1.03448275862068964e-01 0 
3.79310344827586188e-01 1.03448275862068964e-01 0 
4.13793103448275856e-01 1.03448275862068964e-01 0 
4.48275862068965525e-01 1.03448275862068964e-01 0 
4.82758620689655138e-01 1.03448275862068964e-01 0 
0.00000000000000000e+00 0.00000000000000000e+00 0 
0.00000000000000000e+00 1.37931034482758619e-01 0 
3.44827586206896547e-02 1.37931034482758619e-01 0 
6.89655172413793094e-02 1.37931034482758619e-01 0 
1.03448275862068964e-01 1.37931034482758619e-01 0 
1.37931034482758619e-01 1.37931034482758619e-01 0 
1.72413793103448287e-01 1.37931034482758619e-01 0 
2.06896551724137928e-01 1.37931034482758619e-01 0 
2.41379310344827569e-01 1.37931034482758619e-01 0 
2.75862068965517238e-01 1.37931034482758619e-01 0 
3.10344827586206906e-01 1.37931034482758619e-01 0 
3.44827586206896575e-01 1.37931034482758619e-01 0 
3.79310344827586188e-01 1.37931034482758619e-01 0 
4.13793103448275856e-01 1.37931034482758619e-01 0 
4.48275862068965525e-01 1.37931034482758619e-01 0 
4.82758620689655138e-01 1.37931034482758619e-01 0 
0.00000000000000000e+00 0.00000000000000000e+00 0 
0.00000000000000000e+00 1.72413793103448287e-01 0 
3.44827586206896547e-02 1.72413793103448287e-01 0 
6.89655172413793094e-02 1.72413793103448287e-01 0 
1.03448275862068964e-01 1.72413793103448287e-01 0 
1.37931034482758619e-01 1.72413793103448287e-01 0 
1.72413793103448287e-01 1.72413793103448287e-01 0 
2.06896551724137928e-01 1.72413793103448287e-01 0 
2.41379310344827569e-01 1.72413793103448287e-01 0 
2.75862068965517238e-01 1.72413793103448287e-01 0 
3.10344827586206906e-01 1.72413793103448287e-01 0 
3.44827586206896575e-01 1.72413793103448287e-01 0 
3.79310344827586188e-01 1.72413793103448287e-01 0 
4.13793103448275856e-01 1.72413793103448287e-01 0 
4.48275862068965525e-01 1.72413793103448287e-01 0 
4.82758620689655138e-01 1.72413793103448287e-01 0 
0.00000000000000000e+00 0.00000000000000000e+00 0 
0.00000000000000000e+00 2.06896551724137928e-01 0 
3.44827586206896547e-02 2.06896551724137928e-01 0 
6.89655172413793094e-02 2.06896551724137928e-01 0 
1.03448275862068964e-01 2.06896551724137928e-01 0 
1.37931034482758619e-01 2.06896551724137928e-01 0 
1.72413793103448287e-01 2.06896551724137928e-01 0 
2.06896551724137928e-01 2.06896551724137928e-01 0 
2.41379310344827569e-01 2.06896551724137928e-01 0 
2.75862068965517238e-01 2.06896551724137928e-01 0 
3.10344827586206906e-01 2.06896551724137928e-01 0 
3.44827586206896575e-01 2.06896551724137928e-01 0 
3.79310344827586188e-01 2.06896551724137928e-01 0 
4.13793103448275856e-01 2.06896551724137928e-01 0 
4.48275862068965525e-01 2.06896551724137928e-01 0 
4.82758620689655138e-01 2.06896551724137928e-01 0 
0.00000000000000000e+00 0.00000000000000000e+00 0 
0.00000000000000000e+00 2.41379310344827569e-01 0 
3.44827586206896547e-02 2.41379310344827569e-01 0 
6.89655172413793094e-02 2.41379310344827569e-01 0 
1.03448275862068964e-01 2.41379310344827569e-01 0 
1.37931034482758619e-01 2.41379310344827569e-01 0 
1.72413793103448287e-01 2.41379310344827569e-01 0 
2.06896551724137928e-01 2.41379310344827569e-01 0 
2.41379310344827569e-01 2.41379310344827569e-01 0 
2.75862068965517238e-01 2.41379310344827569e-01 0 
3.10344827586206906e-01 2.41379310344827569e-01 0 
3.44827586206896575e-01 2.41379310344827569e-01 0 
3.79310344827586188e-01 2.41379310344827569e-01 0 
4.13793103448275856e-01 2.41379310344827569e-01 0 
4.48275862068965525e-01 2.41379310344827569e-01 0 
4.82758620689655138e-01 2.41379310344827569e-01 0 
0.00000000000000000e+00 0.00000000000000000e+00 0 
0.00000000000000000e+00 2.75862068965517238e-01 0 
3.44827586206896547e-02 2.75862068965517238e-01 0 
6.89655172413793094e-02 2.75862068965517238e-01 0 
1.03448275862068964e-01 2.75862068965517238e-01 0 
1.37931034482758619e-01 2.75862068965517238e-01 0 
1.72413793103448287e-01 2.75862068965517238e-01 0 
2.06896551724137928e-01 2.75862068965517238e-01 0 
2.41379310344827569e-01 2.75862068965517238e-01 0 
2.75862068965517238e-01 2.75862068965517238e-01 0 
3.10344827586206906e-01 2.75862068965517238e-01 0 
3.44827586206896575e-01 2.75862068965517238e-01 0 
3.79310344827586188e-01 2.75862068965517238e-01 0 
4.13793103448275856e-01 2.75862068965517238e-01 0 
4.48275862068965525e-01 2.75862068965517238e-01 0 
4.82758620689655138e-01 2.75862068965517238e-01 0 
0.00000000000000000e+00 0.00000000000000000e+00 0 
0.00000000000000000e+00 3.10344827586206906e-01 0 
3.44827586206896547e-02 3.10344827586206906e-01 0 
6.89655172413793094e-02 3.10344827586206906e-01 0 
1.03448275862068964e-01 3.10344827586206906e-01 0 
1.37931034482758619e-01 3.10344827586206906e-01 0 
1.72413793103448287e-01 3.10344827586206906e-01 0 
2.06896551724137928e-01 3.10344827586206906e-01 0 
2.41379310344827569e-01 3.10344827586206906e-01 0 
2.75862068965517238e-01 3.10344827586206906e-01 0 
3.10344827586206906e-01 3.10344827586206906e-01 0 
3.44827586206896575e-01 3.10344827586206906e-01 0 
3.79310344827586188e-01 3.10344827586206906e-01 0 
4.13793103448275856e-01 3.10344827586206906e-01 0 
4.48275862068965525e-01 3.10344827586206906e-01 0 
4.82758620689655138e-01 3.10344827586206906e-01 0 
0.00000000000000000e+00 0.00000000000000000e+00 0 
0.00000000000000000e+00 3.44827586206896575e-01 0 
3.44827586206896547e-02 3.44827586206896575e-01 0 
6.89655172413793094e-02 3.44827586206896575e-01 0 
1.03448275862068964e-01 3.44827586206896575e-01 0 
1.37931034482758619e-01 3.44827586206896575e-01 0 
1.72413793103448287e-01 3.44827586206896575e-01 0 
2.06896551724137928e-01 3.44827586206896575e-01 0 
2.41379310344827569e-01 3.44827586206896575e-01 0 
2.75862068965517238e-01 3.44827586206896575e-01 0 
3.10344827586206906e-01 3.44827586206896575e-01 0 
3.44827586206896575e-01 3.44827586206896575e-01 0 
3.79310344827586188e-01 3.44827586206896575e-01 0 
4.13793103448275856e-01 3.44827586206896575e-01 0 
4.48275862068965525e-01 3.44827586206896575e-01 0 
4.82758620689655138e-01 3.44827586206896575e-01 0 
0.00000000000000000e+00 0.00000000000000000e+00 0 
0.00000000000000000e+00 3.79310344827586188e-01 0 
3.44827586206896547e-02 3.79310344827586188e-01 0 
6.89655172413793094e-02 3.79310344827586188e-01 0 
1.03448275862068964e-01 3.79310344827586188e-01 0 
1.37931034482758619e-01 3.79310344827586188e-01 0 
1.72413793103448287e-01 3.79310344827586188e-01 0 
2.06896551724137928e-01 3.79310344827586188e-01 0 
2.41379310344827569e-01 3.79310344827586188e-01 0 
2.75862068965517238e-01 3.79310344827586188e-01 0 
3.10344827586206906e-01 3.79310344827586188e-01 0 
3.44827586206896575e-01 3.79310344827586188e-01 0 
3.79310344827586188e-01 3.79310344827586188e-01 0 
4.13793103448275856e-01 3.79310344827586188e-01 0 
4.48275862068965525e-01 3.79310344827586188e-01 0 
4.82758620689655138e-01 3.79310344827586188e-01 0 
0.00000000000000000e+00 0.00000000000000000e+00 0 
0.00000000000000000e+00 4.13793103448275856e-01 0 
3.44827586206896547e-02 4.13793103448275856e-01 0 
6.89655172413793094e-02 4.13793103448275856e-01 0 
1.03448275862068964e-01 4.13793103448275856e-01 0 
1.37931034482758619e-01 4.13793103448275856e-01 0 
1.72413793103448287e-01 4.13793103448275856e-01 0 
2.06896551724137928e-01 4.13793103448275856e-01 0 
2.41379310344827569e-01 4.13793103448275856e-01 0 
2.75862068965517238e-01 4.13793103448275856e-01 0 
3.10344827586206906e-01 4.13793103448275856e-01 0 
3.44827586206896575e-01 4.13793103448275856e-01 0 
3.79310344827586188e-01 4.13793103448275856e-01 0 
4.13793103448275856e-01 4.13793103448275856e-01 0 
4.48275862068965525e-01 4.13793103448275856e-01 0 
4.82758620689655138e-01 4.13793103448275856e-01 0 
0.00000000000000000e+00 0.00000000000000000e+00 0 
0.00000000000000000e+00 4.48275862068965525e-01 0 
3.44827586206896547e-02 4.48275862068965525e-01 0 
6.89655172413793094e-02 4.48275862068965525e-01 0 
1.03448275862068964e-01 4.48275862068965525e-01 0 
1.37931034482758619e-01 4.48275862068965525e-01 0 
1.72413793103448287e-01 4.48275862068965525e-01 0 
2.06896551724137928e-01 4.48275862068965525e-01 0 
2.41379310344827569e-01 4.48275862068965525e-01 0 
2.75862068965517238e-01 4.48275862068965525e-01 0 
3.10344827586206906e-01 4.48275862068965525e-01 0 
3.44827586206896575e-01 4.48275862068965525e-01 0 
3.79310344827586188e-01 4.48275862068965525e-01 0 
4.13793103448275856e-01 4.48275862068965525e-01 0 
4.48275862068965525e-01 4.48275862068965525e-01 0 
4.82758620689655138e-01 4.48275862068965525e-01 0 
0.00000000000000000e+00 0.00000000000000000e+00 0 
0.00000000000000000e+00 4.82758620689655138e-01 0 
3.44827586206896547e-02 4.82758620689655138e-01 0 
6.89655172413793094e-02 4.82758620689655138e-01 0 
1.03448275862068964e-01 4.82758620689655138e-01 0 
1.37931034482758619e-01 4.82758620689655138e-01 0 
1.72413793103448287e-01 4.82758620689655138e-01 0 
2.06896551724137928e-01 4.82758620689655138e-01 0 
2.41379310344827569e-01 4.82758620689655138e-01 0 
2.75862068965517238e-01 4.82758620689655138e-01 0 
3.10344827586206906e-01 4.82758620689655138e-01 0 
3.44827586206896575e-01 4.82758620689655138e-01 0 
3.79310344827586188e-01 4.82758620689655138e-01 0 
4.13793103448275856e-01 4.82758620689655138e-01 0 
4.48275862068965525e-01 4.82758620689655138e-01 0 
4.82758620689655138e-01 4.82758620689655138e-01 0 
0.00000000000000000e+00 0.00000000000000000e+00 0 
0.00000000000000000e+00 0.00000000000000000e+00 0 
0.00000000000000000e+00 0.00000000000000000e+00 0 
0.00000000000000000e+00 0.00000000000000000e+00 0 
0.00000000000000000e+00 0.00000000000000000e+00 0 
0.00000000000000000e+00 0.00000000000000000e+00 0 
0.00000000000000000e+00 0.00000000000000000e+00 0 
0.00000000000000000e+00 0.00000000000000000e+00 0 
0.00000000000000000e+00 0.00000000000000000e+00 0 
0.00000000000000000e+00 0.00000000000000000e+00 0 
0.00000000000000000e+00 0.00000000000000000e+00 0 
0.00000000000000000e+00 0.00000000000000000e+00 0 
0.00000000000000000e+00 0.00000000000000000e+00 0 
0.00000000000000000e+00 0.00000000000000000e+00 0 
0.00000000000000000e+00 0.00000000000000000e+00 0 
0.00000000000000000e+00 0.00000000000000000e+00 0 
0.00000000000000000e+00 0.00000000000000000e+00 0 
</DataArray>
</Points>
<PointData>
<DataArray type="Float64" Name="heat" NumberOfComponents="1" format="ascii">
1.39999999999999902e+00
1.40118906064209137e+00
1.40475624256836951e+00
1.41070154577883344e+00
1.41902497027348384e+00
1.42972651605231715e+00
1.44280618311533693e+00
1.45826397146254227e+00
1.47609988109393453e+00
1.49631391200951169e+00
1.51890606420927377e+00
1.54387633769322141e+00
1.57122473246135463e+00
1.60095124851367432e+00
1.63305588585017736e+00
0.00000000000000000e+00
1.40237812128418504e+00
1.40356718192627783e+00
1.40713436385255530e+00
1.41307966706301991e+00
1.42140309155766964e+00
1.43210463733650273e+00
1.44518430439952317e+00
1.46064209274673118e+00
1.47847800237812077e+00
1.49869203329369904e+00
1.52128418549346156e+00
1.54625445897740743e+00
1.57360285374554132e+00
1.60332936979785967e+00
1.63543400713436249e+00
0.00000000000000000e+00
1.40951248513674154e+00
1.41070154577883278e+00
1.41426872770511092e+00
1.42021403091557530e+00
1.42853745541022459e+00
1.43923900118906034e+00
1.45231866825208122e+00
1.46777645659928679e+00
1.48561236623067883e+00
1.50582639714625532e+00
1.52841854934601806e+00
1.55338882282996438e+00
1.58073721759809627e+00
1.61046373365041529e+00
1.64256837098692010e+00
0.00000000000000000e+00
1.42140309155766875e+00
1.42259215219976087e+00
1.42615933412603835e+00
1.43210463733650228e+00
1.44042806183115268e+00
1.45112960760998866e+00
1.46420927467300999e+00
1.47966706302021445e+00
1.49750297265160648e+00
1.51771700356718298e+00
1.54030915576694438e+00
1.56527942925089225e+00
1.59262782401902481e+00
1.62235434007134427e+00
1.65445897740784775e+00
0.00000000000000000e+00
1.43804994054696578e+00
1.43923900118905967e+00
1.44280618311533826e+00
1.44875148632580175e+00
1.45707491082045171e+00
1.46777645659928702e+00
1.48085612366230790e+00
1.49631391200951236e+00
1.51414982164090506e+00
1.53436385255648311e+00
1.55695600475624363e+00
1.58192627824019039e+00
1.60927467300832250e+00
1.63900118906064107e+00
1.67110582639714544e+00
0.00000000000000000e+00
1.45945303210463595e+00
1.46064209274672918e+00
1.46420927467300799e+00
1.47015457788347281e+00
1.47847800237812299e+00
1.48917954815695830e+00
1.50225921521997630e+00
1.51771700356718231e+00
1.53555291319857457e+00
1.55576694411415106e+00
1.57835909631391269e+00
1.60332936979786123e+00
1.63067776456599400e+00
1.66040428061830991e+00
1.69250891795481606e+00
0.00000000000000000e+00
1.48561236623067683e+00
1.48680142687276984e+00
1.49036860879904953e+00
1.49631391200951303e+00
1.50463733650416187e+00
1.51533888228299785e+00
1.52841854934601762e+00
1.54387633769322319e+00
1.56171224732461345e+00
1.58192627824019016e+00
1.60451843043995290e+00
1.62948870392390077e+00
1.65683709869203288e+00
1.68656361474435301e+00
1.71866825208085761e+00
0.00000000000000000e+00
1.51652794292508619e+00
1.51771700356718253e+00
1.52128418549346001e+00
1.52722948870392394e+00
1.53555291319857368e+00
1.54625445897740921e+00
1.55933412604042809e+00
1.57479191438763344e+00
1.59262782401902370e+00
1.61284185493460153e+00
1.63543400713436360e+00
1.66040428061831147e+00
1.68775267538644447e+00
1.71747919143876415e+00
1.74958382877526919e+00
0.00000000000000000e+00
1.55219976218787026e+00
1.55338882282996327e+00
1.55695600475624207e+00
1.56290130796670756e+00
1.57122473246135597e+00
1.58192627824019105e+00
1.59500594530321016e+00
1.61046373365041617e+00
1.62829964328180643e+00
1.64851367419738248e+00
1.67110582639714544e+00
1.69607609988109420e+00
1.72342449464922787e+00
1.75315101070154844e+00
1.78525564803805104e+00
0.00000000000000000e+00
1.59262782401902370e+00
1.59381688466111759e+00
1.59738406658739573e+00
1.60332936979786056e+00
1.61165279429250830e+00
1.62235434007134183e+00
1.63543400713436426e+00
1.65089179548157006e+00
1.66872770511295920e+00
1.68894173602853659e+00
1.71153388822829955e+00
1.73650416171224764e+00
1.76385255648037975e+00
1.79357907253270121e+00
1.82568370986920558e+00
0.00000000000000000e+00
1.63781212841854806e+00
1.63900118906064174e+00
1.64256837098691966e+00
1.64851367419738470e+00
1.65683709869203422e+00
1.66753864447086886e+00
1.68061831153388797e+00
1.69607609988109287e+00
1.71391200951248557e+00
1.73412604042806162e+00
1.75671819262782303e+00
1.78168846611177245e+00
1.80903686087990345e+00
1.83876337693222425e+00
1.87086801426872884e+00
0.00000000000000000e+00
1.68775267538644336e+00
1.68894173602853770e+00
1.69250891795481562e+00
1.69845422116527933e+00
1.70677764565992796e+00
1.71747919143876304e+00
1.73055885850178282e+00
1.74601664684898861e+00
1.76385255648038108e+00
1.78406658739595825e+00
1.80665873959571965e+00
1.83162901307966908e+00
1.85897740784779986e+00
1.88870392390011932e+00
1.92080856123662369e+00
0.00000000000000000e+00
1.74244946492270958e+00
1.74363852556480370e+00
1.74720570749108095e+00
1.75315101070154555e+00
1.76147443519619373e+00
1.77217598097502949e+00
1.78525564803804948e+00
1.80071343638525661e+00
1.81854934601664775e+00
1.83876337693222425e+00
1.86135552913198565e+00
1.88632580261593219e+00
1.91367419738406541e+00
1.94340071343638421e+00
1.97550535077289036e+00
0.00000000000000000e+00
1.80190249702734784e+00
1.80309155766944063e+00
1.80665873959571854e+00
1.81260404280618093e+00
1.82092746730083155e+00
1.83162901307966686e+00
1.84470868014268774e+00
1.86016646848989420e+00
1.87800237812128601e+00
1.89821640903686228e+00
1.92080856123662302e+00
1.94577883472057200e+00
1.97312722948870300e+00
2.00285374554102269e+00
2.03495838287752839e+00
0.00000000000000000e+00
1.86611177170035503e+00
1.86730083234244959e+00
1.87086801426872684e+00
1.87681331747919056e+00
1.88513674197384007e+00
1.89583828775267738e+00
1.90891795481569759e+00
1.92437574316290294e+00
1.94221165279429431e+00
1.96242568370987058e+00
1.98501783590963132e+00
2.00998810939357986e+00
2.03733650416171219e+00
2.06706302021403143e+00
2.09916765755053714e+00
0.00000000000000000e+00
0.00000000000000000e+00
0.00000000000000000e+00
0.00000000000000000e+00
0.00000000000000000e+00
0.00000000000000000e+00
0.00000000000000000e+00
0.00000000000000000e+00
0.00000000000000000e+00
0.00000000000000000e+00
0.00000000000000000e+00
0.00000000000000000e+00
0.00000000000000000e+00
0.00000000000000000e+00
0.00000000000000000e+00
0.00000000000000000e+00
0.00000000000000000e+00
</DataArray>
</PointData>
</Piece>
</StructuredGrid>
</VTKFile>
