<?xml version="1.0"?>
<VTKFile type="StructuredGrid">
<StructuredGrid WholeExtent="14 29 0 15 0 0 ">
<Piece Extent="14 29 0 15 0 0 ">
<Points>
<DataArray type="Float64" Name="coordinate" NumberOfComponents="3" format="ascii">
0.00000000000000000e+00 0.00000000000000000e+00 0 
5.17241379310344862e-01 0.00000000000000000e+00 0 
5.51724137931034475e-01 0.00000000000000000e+00 0 
5.86206896551724088e-01 0.00000000000000000e+00 0 
6.20689655172413812e-01 0.00000000000000000e+00 0 
6.55172413793103425e-01 0.00000000000000000e+00 0 
6.89655172413793149e-01 0.00000000000000000e+00 0 
7.24137931034482762e-01 0.00000000000000000e+00 0 
7.58620689655172376e-01 0.00000000000000000e+00 0 
7.93103448275862100e-01 0.00000000000000000e+00 0 
8.27586206896551713e-01 0.00000000000000000e+00 0 
8.62068965517241326e-01 0.00000000000000000e+00 0 
8.96551724137931050e-01 0.00000000000000000e+00 0 
9.31034482758620663e-01 0.00000000000000000e+00 0 
9.65517241379310276e-01 0.00000000000000000e+00 0 
1.00000000000000000e+00 0.00000000000000000e+00 0 
0.00000000000000000e+00 0.00000000000000000e+00 0 
5.17241379310344862e-01 3.44827586206896547e-02 0 
5.51724137931034475e-01 3.44827586206896547e-02 0 
5.86206896551724088e-01 3.44827586206896547e-02 0 
6.20689655172413812e-01 3.44827586206896547e-02 0 
6.55172413793103425e-01 3.44827586206896547e-02 0 
6.89655172413793149e-01 3.44827586206896547e-02 0 
7.24137931034482762e-01 3.44827586206896547e-02 0 
7.58620689655172376e-01 3.44827586206896547e-02 0 
7.93103448275862100e-01 3.44827586206896547e-02 0 
8.27586206896551713e-01 3.44827586206896547e-02 0 
8.62068965517241326e-01 3.44827586206896547e-02 0 
8.96551724137931050e-01 3.44827586206896547e-02 0 
9.31034482758620663e-01 3.44827586206896547e-02 0 
9.65517241379310276e-01 3.44827586206896547e-02 0 
1.00000000000000000e+00 3.44827586206896547e-02 0 
0.00000000000000000e+00 0.00000000000000000e+00 0 
5.17241379310344862e-01 6.89655172413793094e-02 0 
5.51724137931034475e-01 6.89655172413793094e-02 0 
5.86206896551724088e-01 6.89655172413793094e-02 0 
6.20689655172413812e-01 6.89655172413793094e-02 0 
6.55172413793103425e-01 6.89655172413793094e-02 0 
6.89655172413793149e-01 6.89655172413793094e-02 0 
7.24137931034482762e-01 6.89655172413793094e-02 0 
7.58620689655172376e-01 6.89655172413793094e-02 0 
7.93103448275862100e-01 6.89655172413793094e-02 0 
8.27586206896551713e-01 6.89655172413793094e-02 0 
8.62068965517241326e-01 6.89655172413793094e-02 0 
8.96551724137931050e-01 6.89655172413793094e-02 0 
9.31034482758620663e-01 6.89655172413793094e-02 0 
9.65517241379310276e-01 6.89655172413793094e-02 0 
1.00000000000000000e+00 6.89655172413793094e-02 0 
0.00000000000000000e+00 0.00000000000000000e+00 0 
5.17241379310344862e-01 1.03448275862068964e-01 0 
5.51724137931034475e-01 1.03448275862068964e-01 0 
5.86206896551724088e-01 1.03448275862068964e-01 0 
6.20689655172413812e-01 1.03448275862068964e-01 0 
6.55172413793103425e-01 1.03448275862068964e-01 0 
6.89655172413793149e-01 1.03448275862068964e-01 0 
7.24137931034482762e-01 1.03448275862068964e-01 0 
7.58620689655172376e-01 1.03448275862068964e-01 0 
7.93103448275862100e-01 1.03448275862068964e-01 0 
8.27586206896551713e-01 1.03448275862068964e-01 0 
8.62068965517241326e-01 1.03448275862068964e-01 0 
8.96551724137931050e-01 1.03448275862068964e-01 0 
9.31034482758620663e-01 1.03448275862068964e-01 0 
9.65517241379310276e-01 1.03448275862068964e-01 0 
1.00000000000000000e+00 1.03448275862068964e-01 0 
0.00000000000000000e+00 0.00000000000000000e+00 0 
5.17241379310344862e-01 1.37931034482758619e-01 0 
5.51724137931034475e-01 1.37931034482758619e-01 0 
5.86206896551724088e-01 1.37931034482758619e-01 0 
6.20689655172413812e-01 1.37931034482758619e-01 0 
6.55172413793103425e-01 1.37931034482758619e-01 0 
6.89655172413793149e-01 1.37931034482758619e-01 0 
7.24137931034482762e-01 1.37931034482758619e-01 0 
7.58620689655172376e-01 1.37931034482758619e-01 0 
7.93103448275862100e-01 1.37931034482758619e-01 0 
8.27586206896551713e-01 1.37931034482758619e-01 0 
8.62068965517241326e-01 1.37931034482758619e-01 0 
8.96551724137931050e-01 1.37931034482758619e-01 0 
9.31034482758620663e-01 1.37931034482758619e-01 0 
9.65517241379310276e-01 1.37931034482758619e-01 0 
1.00000000000000000e+00 1.37931034482758619e-01 0 
0.00000000000000000e+00 0.00000000000000000e+00 0 
5.17241379310344862e-01 1.72413793103448287e-01 0 
5.51724137931034475e-01 1.72413793103448287e-01 0 
5.86206896551724088e-01 1.72413793103448287e-01 0 
6.20689655172413812e-01 1.72413793103448287e-01 0 
6.55172413793103425e-01 1.72413793103448287e-01 0 
6.89655172413793149e-01 1.72413793103448287e-01 0 
7.24137931034482762e-01 1.72413793103448287e-01 0 
7.58620689655172376e-01 1.72413793103448287e-01 0 
7.93103448275862100e-01 1.72413793103448287e-01 0 
8.27586206896551713e-01 1.72413793103448287e-01 0 
8.62068965517241326e-01 1.72413793103448287e-01 0 
8.96551724137931050e-01 1.72413793103448287e-01 0 
9.31034482758620663e-01 1.72413793103448287e-01 0 
9.65517241379310276e-01 1.72413793103448287e-01 0 
1.00000000000000000e+00 1.72413793103448287e-01 0 
0.00000000000000000e+00 0.00000000000000000e+00 0 
5.17241379310344862e-01 2.06896551724137928e-01 0 
5.51724137931034475e-01 2.06896551724137928e-01 0 
5.86206896551724088e-01 2.06896551724137928e-01 0 
6.20689655172413812e-01 2.06896551724137928e-01 0 
6.55172413793103425e-01 2.06896551724137928e-01 0 
6.89655172413793149e-01 2.06896551724137928e-01 0 
7.24137931034482762e-01 2.06896551724137928e-01 0 
7.58620689655172376e-01 2.06896551724137928e-01 0 
7.93103448275862100e-01 2.06896551724137928e-01 0 
8.27586206896551713e-01 2.06896551724137928e-01 0 
8.62068965517241326e-01 2.06896551724137928e-01 0 
8.96551724137931050e-01 2.06896551724137928e-01 0 
9.31034482758620663e-01 2.06896551724137928e-01 0 
9.65517241379310276e-01 2.06896551724137928e-01 0 
1.00000000000000000e+00 2.06896551724137928e-01 0 
0.00000000000000000e+00 0.00000000000000000e+00 0 
5.17241379310344862e-01 2.41379310344827569e-01 0 
5.51724137931034475e-01 2.41379310344827569e-01 0 
5.86206896551724088e-01 2.41379310344827569e-01 0 
6.20689655172413812e-01 2.41379310344827569e-01 0 
6.55172413793103425e-01 2.41379310344827569e-01 0 
6.89655172413793149e-01 2.41379310344827569e-01 0 
7.24137931034482762e-01 2.41379310344827569e-01 0 
7.58620689655172376e-01 2.41379310344827569e-01 0 
7.93103448275862100e-01 2.41379310344827569e-01 0 
8.27586206896551713e-01 2.41379310344827569e-01 0 
8.62068965517241326e-01 2.41379310344827569e-01 0 
8.96551724137931050e-01 2.41379310344827569e-01 0 
9.31034482758620663e-01 2.41379310344827569e-01 0 
9.65517241379310276e-01 2.41379310344827569e-01 0 
1.00000000000000000e+00 2.41379310344827569e-01 0 
0.00000000000000000e+00 0.00000000000000000e+00 0 
5.17241379310344862e-01 2.75862068965517238e-01 0 
5.51724137931034475e-01 2.75862068965517238e-01 0 
5.86206896551724088e-01 2.75862068965517238e-01 0 
6.20689655172413812e-01 2.75862068965517238e-01 0 
6.55172413793103425e-01 2.75862068965517238e-01 0 
6.89655172413793149e-01 2.75862068965517238e-01 0 
7.24137931034482762e-01 2.75862068965517238e-01 0 
7.58620689655172376e-01 2.75862068965517238e-01 0 
7.93103448275862100e-01 2.75862068965517238e-01 0 
8.27586206896551713e-01 2.75862068965517238e-01 0 
8.62068965517241326e-01 2.75862068965517238e-01 0 
8.96551724137931050e-01 2.75862068965517238e-01 0 
9.31034482758620663e-01 2.75862068965517238e-01 0 
9.65517241379310276e-01 2.75862068965517238e-01 0 
1.00000000000000000e+00 2.75862068965517238e-01 0 
0.00000000000000000e+00 0.00000000000000000e+00 0 
5.17241379310344862e-01 3.10344827586206906e-01 0 
5.51724137931034475e-01 3.10344827586206906e-01 0 
5.86206896551724088e-01 3.10344827586206906e-01 0 
6.20689655172413812e-01 3.10344827586206906e-01 0 
6.55172413793103425e-01 3.10344827586206906e-01 0 
6.89655172413793149e-01 3.10344827586206906e-01 0 
7.24137931034482762e-01 3.10344827586206906e-01 0 
7.58620689655172376e-01 3.10344827586206906e-01 0 
7.93103448275862100e-01 3.10344827586206906e-01 0 
8.27586206896551713e-01 3.10344827586206906e-01 0 
8.62068965517241326e-01 3.10344827586206906e-01 0 
8.96551724137931050e-01 3.10344827586206906e-01 0 
9.31034482758620663e-01 3.10344827586206906e-01 0 
9.65517241379310276e-01 3.10344827586206906e-01 0 
1.00000000000000000e+00 3.10344827586206906e-01 0 
0.00000000000000000e+00 0.00000000000000000e+00 0 
5.17241379310344862e-01 3.44827586206896575e-01 0 
5.51724137931034475e-01 3.44827586206896575e-01 0 
5.86206896551724088e-01 3.44827586206896575e-01 0 
6.20689655172413812e-01 3.44827586206896575e-01 0 
6.55172413793103425e-01 3.44827586206896575e-01 0 
6.89655172413793149e-01 3.44827586206896575e-01 0 
7.24137931034482762e-01 3.44827586206896575e-01 0 
7.58620689655172376e-01 3.44827586206896575e-01 0 
7.93103448275862100e-01 3.44827586206896575e-01 0 
8.27586206896551713e-01 3.44827586206896575e-01 0 
8.62068965517241326e-01 3.44827586206896575e-01 0 
8.96551724137931050e-01 3.44827586206896575e-01 0 
9.31034482758620663e-01 3.44827586206896575e-01 0 
9.65517241379310276e-01 3.44827586206896575e-01 0 
1.00000000000000000e+00 3.44827586206896575e-01 0 
0.00000000000000000e+00 0.00000000000000000e+00 0 
5.17241379310344862e-01 3.79310344827586188e-01 0 
5.51724137931034475e-01 3.79310344827586188e-01 0 
5.86206896551724088e-01 3.79310344827586188e-01 0 
6.20689655172413812e-01 3.79310344827586188e-01 0 
6.55172413793103425e-01 3.79310344827586188e-01 0 
6.89655172413793149e-01 3.79310344827586188e-01 0 
7.24137931034482762e-01 3.79310344827586188e-01 0 
7.58620689655172376e-01 3.79310344827586188e-01 0 
7.93103448275862100e-01 3.79310344827586188e-01 0 
8.27586206896551713e-01 3.79310344827586188e-01 0 
8.62068965517241326e-01 3.79310344827586188e-01 0 
8.96551724137931050e-01 3.79310344827586188e-01 0 
9.31034482758620663e-01 3.79310344827586188e-01 0 
9.65517241379310276e-01 3.79310344827586188e-01 0 
1.00000000000000000e+00 3.79310344827586188e-01 0 
0.00000000000000000e+00 0.00000000000000000e+00 0 
5.17241379310344862e-01 4.13793103448275856e-01 0 
5.51724137931034475e-01 4.13793103448275856e-01 0 
5.86206896551724088e-01 4.13793103448275856e-01 0 
6.20689655172413812e-01 4.13793103448275856e-01 0 
6.55172413793103425e-01 4.13793103448275856e-01 0 
6.89655172413793149e-01 4.13793103448275856e-01 0 
7.24137931034482762e-01 4.13793103448275856e-01 0 
7.58620689655172376e-01 4.13793103448275856e-01 0 
7.93103448275862100e-01 4.13793103448275856e-01 0 
8.27586206896551713e-01 4.13793103448275856e-01 0 
8.62068965517241326e-01 4.13793103448275856e-01 0 
8.96551724137931050e-01 4.13793103448275856e-01 0 
9.31034482758620663e-01 4.13793103448275856e-01 0 
9.65517241379310276e-01 4.13793103448275856e-01 0 
1.00000000000000000e+00 4.13793103448275856e-01 0 
0.00000000000000000e+00 0.00000000000000000e+00 0 
5.17241379310344862e-01 4.48275862068965525e-01 0 
5.51724137931034475e-01 4.48275862068965525e-01 0 
5.86206896551724088e-01 4.48275862068965525e-01 0 
6.20689655172413812e-01 4.48275862068965525e-01 0 
6.55172413793103425e-01 4.48275862068965525e-01 0 
6.89655172413793149e-01 4.48275862068965525e-01 0 
7.24137931034482762e-01 4.48275862068965525e-01 0 
7.58620689655172376e-01 4.48275862068965525e-01 0 
7.93103448275862100e-01 4.48275862068965525e-01 0 
8.27586206896551713e-01 4.48275862068965525e-01 0 
8.62068965517241326e-01 4.48275862068965525e-01 0 
8.96551724137931050e-01 4.48275862068965525e-01 0 
9.31034482758620663e-01 4.48275862068965525e-01 0 
9.65517241379310276e-01 4.48275862068965525e-01 0 
1.00000000000000000e+00 4.48275862068965525e-01 0 
0.00000000000000000e+00 0.00000000000000000e+00 0 
5.17241379310344862e-01 4.82758620689655138e-01 0 
5.51724137931034475e-01 4.82758620689655138e-01 0 
5.86206896551724088e-01 4.82758620689655138e-01 0 
6.20689655172413812e-01 4.82758620689655138e-01 0 
6.55172413793103425e-01 4.82758620689655138e-01 0 
6.89655172413793149e-01 4.82758620689655138e-01 0 
7.24137931034482762e-01 4.82758620689655138e-01 0 
7.58620689655172376e-01 4.82758620689655138e-01 0 
7.93103448275862100e-01 4.82758620689655138e-01 0 
8.27586206896551713e-01 4.82758620689655138e-01 0 
8.62068965517241326e-01 4.82758620689655138e-01 0 
8.96551724137931050e-01 4.82758620689655138e-01 0 
9.31034482758620663e-01 4.82758620689655138e-01 0 
9.65517241379310276e-01 4.82758620689655138e-01 0 
1.00000000000000000e+00 4.82758620689655138e-01 0 
0.00000000000000000e+00 0.00000000000000000e+00 0 
0.00000000000000000e+00 0.00000000000000000e+00 0 
0.00000000000000000e+00 0.00000000000000000e+00 0 
0.00000000000000000e+00 0.00000000000000000e+00 0 
0.00000000000000000e+00 0.00000000000000000e+00 0 
0.00000000000000000e+00 0.00000000000000000e+00 0 
0.00000000000000000e+00 0.00000000000000000e+00 0 
0.00000000000000000e+00 0.00000000000000000e+00 0 
0.00000000000000000e+00 0.00000000000000000e+00 0 
0.00000000000000000e+00 0.00000000000000000e+00 0 
0.00000000000000000e+00 0.00000000000000000e+00 0 
0.00000000000000000e+00 0.00000000000000000e+00 0 
0.00000000000000000e+00 0.00000000000000000e+00 0 
0.00000000000000000e+00 0.00000000000000000e+00 0 
0.00000000000000000e+00 0.00000000000000000e+00 0 
0.00000000000000000e+00 0.00000000000000000e+00 0 
</DataArray>
</Points>
<PointData>
<DataArray type="Float64" Name="heat" NumberOfComponents="1" format="ascii">
0.00000000000000000e+00
2.06753864447086810e+00
2.10439952437574274e+00
2.14363852556480294e+00
2.18525564803804917e+00
2.22925089179547786e+00
2.27562425683709479e+00
2.32437574316289997e+00
2.37550535077288982e+00
2.42901307966706304e+00
2.48489892984542138e+00
2.54316290130796396e+00
2.60380499405469390e+00
2.66682520808561030e+00
2.73222354340071227e+00
2.80000000000000027e+00
0.00000000000000000e+00
2.06991676575505235e+00
2.10677764565993053e+00
2.14601664684899029e+00
2.18763376932223563e+00
2.23162901307966921e+00
2.27800237812128392e+00
2.32675386444708776e+00
2.37788347205707584e+00
2.43139120095124817e+00
2.48727705112960651e+00
2.54554102259215131e+00
2.60618311533888081e+00
2.66920332936979721e+00
2.73460166468490007e+00
2.80237812128418540e+00
0.00000000000000000e+00
2.07705112960760863e+00
2.11391200951248459e+00
2.15315101070154791e+00
2.19476813317479413e+00
2.23876337693222416e+00
2.28513674197384287e+00
2.33388822829964449e+00
2.38501783590963079e+00
2.43852556480380445e+00
2.49441141498216234e+00
2.55267538644470626e+00
2.61331747919143709e+00
2.67633769322235260e+00
2.74173602853745457e+00
2.80951248513674035e+00
0.00000000000000000e+00
2.08894173602853472e+00
2.12580261593341246e+00
2.16504161712247356e+00
2.20665873959572112e+00
2.25065398335315336e+00
2.29702734839476808e+00
2.34577883472057014e+00
2.39690844233056088e+00
2.45041617122473232e+00
2.50630202140308977e+00
2.56456599286563502e+00
2.62520808561236629e+00
2.68822829964328047e+00
2.75362663495838289e+00
2.82140309155766644e+00
0.00000000000000000e+00
2.10558858501783552e+00
2.14244946492270838e+00
2.18168846611176903e+00
2.22330558858501925e+00
2.26730083234245150e+00
2.31367419738406888e+00
2.36242568370987049e+00
2.41355529131985413e+00
2.46706302021403401e+00
2.52294887039238880e+00
2.58121284185493582e+00
2.64185493460166487e+00
2.70487514863257905e+00
2.77027348394768147e+00
2.83804994054696857e+00
0.00000000000000000e+00
2.12699167657550481e+00
2.16385255648037722e+00
2.20309155766944054e+00
2.24470868014268676e+00
2.28870392390012034e+00
2.33507728894173638e+00
2.38382877526753800e+00
2.43495838287752653e+00
2.48846611177169930e+00
2.54435196195005853e+00
2.60261593341260422e+00
2.66325802615933460e+00
2.72627824019024745e+00
2.79167657550535209e+00
2.85945303210463431e+00
0.00000000000000000e+00
2.15315101070154347e+00
2.19001189060642032e+00
2.22925089179548008e+00
2.27086801426872587e+00
2.31486325802615989e+00
2.36123662306777637e+00
2.40998810939357710e+00
2.46111771700356652e+00
2.51462544589773884e+00
2.57051129607609807e+00
2.62877526753864643e+00
2.68941736028537459e+00
2.75243757431629454e+00
2.81783590963139208e+00
2.88561236623067474e+00
0.00000000000000000e+00
2.18406658739595816e+00
2.22092746730083235e+00
2.26016646848989300e+00
2.30178359096313967e+00
2.34577883472057103e+00
2.39215219976218751e+00
2.44090368608798958e+00
2.49203329369798166e+00
2.54554102259215265e+00
2.60142687277051321e+00
2.65969084423305580e+00
2.72033293697978840e+00
2.78335315101070080e+00
2.84875148632580011e+00
2.91652794292508544e+00
0.00000000000000000e+00
2.21973840665873867e+00
2.25659928656361597e+00
2.29583828775267751e+00
2.33745541022592063e+00
2.38145065398335154e+00
2.42782401902497025e+00
2.47657550535077409e+00
2.52770511296076217e+00
2.58121284185493671e+00
2.63709869203329372e+00
2.69536266349583853e+00
2.75600475624257113e+00
2.81902497027348353e+00
2.88442330558858329e+00
2.95219976218787128e+00
0.00000000000000000e+00
2.26016646848989344e+00
2.29702734839477118e+00
2.33626634958382917e+00
2.37788347205707318e+00
2.42187871581450631e+00
2.46825208085612502e+00
2.51700356718192442e+00
2.56813317479191605e+00
2.62164090368608882e+00
2.67752675386444672e+00
2.73579072532699286e+00
2.79643281807372013e+00
2.85945303210464008e+00
2.92485136741973673e+00
2.99262782401902427e+00
0.00000000000000000e+00
2.30535077288941759e+00
2.34221165279429311e+00
2.38145065398335287e+00
2.42306777645659821e+00
2.46706302021403356e+00
2.51343638525564961e+00
2.56218787158145123e+00
2.61331747919144375e+00
2.66682520808561341e+00
2.72271105826397353e+00
2.78097502972651656e+00
2.84161712247324649e+00
2.90463733650415934e+00
2.97003567181926353e+00
3.03781212841854753e+00
0.00000000000000000e+00
2.35529131985731421e+00
2.39215219976218751e+00
2.43139120095124772e+00
2.47300832342449572e+00
2.51700356718192575e+00
2.56337693222354313e+00
2.61212841854934696e+00
2.66325802615933549e+00
2.71676575505350915e+00
2.77265160523186882e+00
2.83091557669441185e+00
2.89155766944113957e+00
2.95457788347205552e+00
3.01997621878715838e+00
3.08775267538644105e+00
0.00000000000000000e+00
2.40998810939357888e+00
2.44684898929845485e+00
2.48608799048751550e+00
2.52770511296076039e+00
2.57170035671819530e+00
2.61807372175981135e+00
2.66682520808561474e+00
2.71795481569560238e+00
2.77146254458977515e+00
2.82734839476813571e+00
2.88561236623068007e+00
2.94625445897740823e+00
3.00927467300832197e+00
3.07467300832342660e+00
3.14244946492270660e+00
0.00000000000000000e+00
2.46944114149821603e+00
2.50630202140309377e+00
2.54554102259215176e+00
2.58715814506539976e+00
2.63115338882283023e+00
2.67752675386444716e+00
2.72627824019025056e+00
2.77740784780024041e+00
2.83091557669441318e+00
2.88680142687277241e+00
2.94506539833531500e+00
3.00570749108204538e+00
3.06872770511296178e+00
3.13412604042806109e+00
3.20190249702734597e+00
0.00000000000000000e+00
2.53365041617122477e+00
2.57051129607610074e+00
2.60975029726516050e+00
2.65136741973840762e+00
2.69536266349583853e+00
2.74173602853745590e+00
2.79048751486325930e+00
2.84161712247324916e+00
2.89512485136742015e+00
2.95101070154578204e+00
3.00927467300832641e+00
3.06991676575505501e+00
3.13293697978597008e+00
3.19833531510107028e+00
3.26611177170035560e+00
0.00000000000000000e+00
0.00000000000000000e+00
0.00000000000000000e+00
0.00000000000000000e+00
0.00000000000000000e+00
0.00000000000000000e+00
0.00000000000000000e+00
0.00000000000000000e+00
0.00000000000000000e+00
0.00000000000000000e+00
0.00000000000000000e+00
0.00000000000000000e+00
0.00000000000000000e+00
0.00000000000000000e+00
0.00000000000000000e+00
0.00000000000000000e+00
</DataArray>
</PointData>
</Piece>
</StructuredGrid>
</VTKFile>
