<?xml version="1.0"?>
<VTKFile type="StructuredGrid">
<StructuredGrid WholeExtent="0 15 14 29 0 0 ">
<Piece Extent="0 15 14 29 0 0 ">
<Points>
<DataArray type="Float64" Name="coordinate" NumberOfComponents="3" format="ascii">
0.00000000000000000e+00 0.00000000000000000e+00 0 
0.00000000000000000e+00 0.00000000000000000e+00 0 
0.00000000000000000e+00 0.00000000000000000e+00 0 
0.00000000000000000e+00 0.00000000000000000e+00 0 
0.00000000000000000e+00 0.00000000000000000e+00 0 
0.00000000000000000e+00 0.00000000000000000e+00 0 
0.00000000000000000e+00 0.00000000000000000e+00 0 
0.00000000000000000e+00 0.00000000000000000e+00 0 
0.00000000000000000e+00 0.00000000000000000e+00 0 
0.00000000000000000e+00 0.00000000000000000e+00 0 
0.00000000000000000e+00 0.00000000000000000e+00 0 
0.00000000000000000e+00 0.00000000000000000e+00 0 
0.00000000000000000e+00 0.00000000000000000e+00 0 
0.00000000000000000e+00 0.00000000000000000e+00 0 
0.00000000000000000e+00 0.00000000000000000e+00 0 
0.00000000000000000e+00 0.00000000000000000e+00 0 
0.00000000000000000e+00 5.17241379310344862e-01 0 
3.44827586206896547e-02 5.17241379310344862e-01 0 
6.89655172413793094e-02 5.17241379310344862e-01 0 
1.03448275862068964e-01 5.17241379310344862e-01 0 
1.37931034482758619e-01 5.17241379310344862e-01 0 
1.72413793103448287e-01 5.17241379310344862e-01 0 
2.06896551724137928e-01 5.17241379310344862e-01 0 
2.41379310344827569e-01 5.17241379310344862e-01 0 
2.75862068965517238e-01 5.17241379310344862e-01 0 
3.10344827586206906e-01 5.17241379310344862e-01 0 
3.44827586206896575e-01 5.17241379310344862e-01 0 
3.79310344827586188e-01 5.17241379310344862e-01 0 
4.13793103448275856e-01 5.17241379310344862e-01 0 
4.48275862068965525e-01 5.17241379310344862e-01 0 
4.82758620689655138e-01 5.17241379310344862e-01 0 
0.00000000000000000e+00 0.00000000000000000e+00 0 
0.00000000000000000e+00 5.51724137931034475e-01 0 
3.44827586206896547e-02 5.51724137931034475e-01 0 
6.89655172413793094e-02 5.51724137931034475e-01 0 
1.03448275862068964e-01 5.51724137931034475e-01 0 
1.37931034482758619e-01 5.51724137931034475e-01 0 
1.72413793103448287e-01 5.51724137931034475e-01 0 
2.06896551724137928e-01 5.51724137931034475e-01 0 
2.41379310344827569e-01 5.51724137931034475e-01 0 
2.75862068965517238e-01 5.51724137931034475e-01 0 
3.10344827586206906e-01 5.51724137931034475e-01 0 
3.44827586206896575e-01 5.51724137931034475e-01 0 
3.79310344827586188e-01 5.51724137931034475e-01 0 
4.13793103448275856e-01 5.51724137931034475e-01 0 
4.48275862068965525e-01 5.51724137931034475e-01 0 
4.82758620689655138e-01 5.51724137931034475e-01 0 
0.00000000000000000e+00 0.00000000000000000e+00 0 
0.00000000000000000e+00 5.86206896551724088e-01 0 
3.44827586206896547e-02 5.86206896551724088e-01 0 
6.89655172413793094e-02 5.86206896551724088e-01 0 
1.03448275862068964e-01 5.86206896551724088e-01 0 
1.37931034482758619e-01 5.86206896551724088e-01 0 
1.72413793103448287e-01 5.86206896551724088e-01 0 
2.06896551724137928e-01 5.86206896551724088e-01 0 
2.41379310344827569e-01 5.86206896551724088e-01 0 
2.75862068965517238e-01 5.86206896551724088e-01 0 
3.10344827586206906e-01 5.86206896551724088e-01 0 
3.44827586206896575e-01 5.86206896551724088e-01 0 
3.79310344827586188e-01 5.86206896551724088e-01 0 
4.13793103448275856e-01 5.86206896551724088e-01 0 
4.48275862068965525e-01 5.86206896551724088e-01 0 
4.82758620689655138e-01 5.86206896551724088e-01 0 
0.00000000000000000e+00 0.00000000000000000e+00 0 
0.00000000000000000e+00 6.20689655172413812e-01 0 
3.44827586206896547e-02 6.20689655172413812e-01 0 
6.89655172413793094e-02 6.20689655172413812e-01 0 
1.03448275862068964e-01 6.20689655172413812e-01 0 
1.37931034482758619e-01 6.20689655172413812e-01 0 
1.72413793103448287e-01 6.20689655172413812e-01 0 
2.06896551724137928e-01 6.20689655172413812e-01 0 
2.41379310344827569e-01 6.20689655172413812e-01 0 
2.75862068965517238e-01 6.20689655172413812e-01 0 
3.10344827586206906e-01 6.20689655172413812e-01 0 
3.44827586206896575e-01 6.20689655172413812e-01 0 
3.79310344827586188e-01 6.20689655172413812e-01 0 
4.13793103448275856e-01 6.20689655172413812e-01 0 
4.48275862068965525e-01 6.20689655172413812e-01 0 
4.82758620689655138e-01 6.20689655172413812e-01 0 
0.00000000000000000e+00 0.00000000000000000e+00 0 
0.00000000000000000e+00 6.55172413793103425e-01 0 
3.44827586206896547e-02 6.55172413793103425e-01 0 
6.89655172413793094e-02 6.55172413793103425e-01 0 
1.03448275862068964e-01 6.55172413793103425e-01 0 
1.37931034482758619e-01 6.55172413793103425e-01 0 
1.72413793103448287e-01 6.55172413793103425e-01 0 
2.06896551724137928e-01 6.55172413793103425e-01 0 
2.41379310344827569e-01 6.55172413793103425e-01 0 
2.75862068965517238e-01 6.55172413793103425e-01 0 
3.10344827586206906e-01 6.55172413793103425e-01 0 
3.44827586206896575e-01 6.55172413793103425e-01 0 
3.79310344827586188e-01 6.55172413793103425e-01 0 
4.13793103448275856e-01 6.55172413793103425e-01 0 
4.48275862068965525e-01 6.55172413793103425e-01 0 
4.82758620689655138e-01 6.55172413793103425e-01 0 
0.00000000000000000e+00 0.00000000000000000e+00 0 
0.00000000000000000e+00 6.89655172413793149e-01 0 
3.44827586206896547e-02 6.89655172413793149e-01 0 
6.89655172413793094e-02 6.89655172413793149e-01 0 
1.03448275862068964e-01 6.89655172413793149e-01 0 
1.37931034482758619e-01 6.89655172413793149e-01 0 
1.72413793103448287e-01 6.89655172413793149e-01 0 
2.06896551724137928e-01 6.89655172413793149e-01 0 
2.41379310344827569e-01 6.89655172413793149e-01 0 
2.75862068965517238e-01 6.89655172413793149e-01 0 
3.10344827586206906e-01 6.89655172413793149e-01 0 
3.44827586206896575e-01 6.89655172413793149e-01 0 
3.79310344827586188e-01 6.89655172413793149e-01 0 
4.13793103448275856e-01 6.89655172413793149e-01 0 
4.48275862068965525e-01 6.89655172413793149e-01 0 
4.82758620689655138e-01 6.89655172413793149e-01 0 
0.00000000000000000e+00 0.00000000000000000e+00 0 
0.00000000000000000e+00 7.24137931034482762e-01 0 
3.44827586206896547e-02 7.24137931034482762e-01 0 
6.89655172413793094e-02 7.24137931034482762e-01 0 
1.03448275862068964e-01 7.24137931034482762e-01 0 
1.37931034482758619e-01 7.24137931034482762e-01 0 
1.72413793103448287e-01 7.24137931034482762e-01 0 
2.06896551724137928e-01 7.24137931034482762e-01 0 
2.41379310344827569e-01 7.24137931034482762e-01 0 
2.75862068965517238e-01 7.24137931034482762e-01 0 
3.10344827586206906e-01 7.24137931034482762e-01 0 
3.44827586206896575e-01 7.24137931034482762e-01 0 
3.79310344827586188e-01 7.24137931034482762e-01 0 
4.13793103448275856e-01 7.24137931034482762e-01 0 
4.48275862068965525e-01 7.24137931034482762e-01 0 
4.82758620689655138e-01 7.24137931034482762e-01 0 
0.00000000000000000e+00 0.00000000000000000e+00 0 
0.00000000000000000e+00 7.58620689655172376e-01 0 
3.44827586206896547e-02 7.58620689655172376e-01 0 
6.89655172413793094e-02 7.58620689655172376e-01 0 
1.03448275862068964e-01 7.58620689655172376e-01 0 
1.37931034482758619e-01 7.58620689655172376e-01 0 
1.72413793103448287e-01 7.58620689655172376e-01 0 
2.06896551724137928e-01 7.58620689655172376e-01 0 
2.41379310344827569e-01 7.58620689655172376e-01 0 
2.75862068965517238e-01 7.58620689655172376e-01 0 
3.10344827586206906e-01 7.58620689655172376e-01 0 
3.44827586206896575e-01 7.58620689655172376e-01 0 
3.79310344827586188e-01 7.58620689655172376e-01 0 
4.13793103448275856e-01 7.58620689655172376e-01 0 
4.48275862068965525e-01 7.58620689655172376e-01 0 
4.82758620689655138e-01 7.58620689655172376e-01 0 
0.00000000000000000e+00 0.00000000000000000e+00 0 
0.00000000000000000e+00 7.93103448275862100e-01 0 
3.44827586206896547e-02 7.93103448275862100e-01 0 
6.89655172413793094e-02 7.93103448275862100e-01 0 
1.03448275862068964e-01 7.93103448275862100e-01 0 
1.37931034482758619e-01 7.93103448275862100e-01 0 
1.72413793103448287e-01 7.93103448275862100e-01 0 
2.06896551724137928e-01 7.93103448275862100e-01 0 
2.41379310344827569e-01 7.93103448275862100e-01 0 
2.75862068965517238e-01 7.93103448275862100e-01 0 
3.10344827586206906e-01 7.93103448275862100e-01 0 
3.44827586206896575e-01 7.93103448275862100e-01 0 
3.79310344827586188e-01 7.93103448275862100e-01 0 
4.13793103448275856e-01 7.93103448275862100e-01 0 
4.48275862068965525e-01 7.93103448275862100e-01 0 
4.82758620689655138e-01 7.93103448275862100e-01 0 
0.00000000000000000e+00 0.00000000000000000e+00 0 
0.00000000000000000e+00 8.27586206896551713e-01 0 
3.44827586206896547e-02 8.27586206896551713e-01 0 
6.89655172413793094e-02 8.27586206896551713e-01 0 
1.03448275862068964e-01 8.27586206896551713e-01 0 
1.37931034482758619e-01 8.27586206896551713e-01 0 
1.72413793103448287e-01 8.27586206896551713e-01 0 
2.06896551724137928e-01 8.27586206896551713e-01 0 
2.41379310344827569e-01 8.27586206896551713e-01 0 
2.75862068965517238e-01 8.27586206896551713e-01 0 
3.10344827586206906e-01 8.27586206896551713e-01 0 
3.44827586206896575e-01 8.27586206896551713e-01 0 
3.79310344827586188e-01 8.27586206896551713e-01 0 
4.13793103448275856e-01 8.27586206896551713e-01 0 
4.48275862068965525e-01 8.27586206896551713e-01 0 
4.82758620689655138e-01 8.27586206896551713e-01 0 
0.00000000000000000e+00 0.00000000000000000e+00 0 
0.00000000000000000e+00 8.62068965517241326e-01 0 
3.44827586206896547e-02 8.62068965517241326e-01 0 
6.89655172413793094e-02 8.62068965517241326e-01 0 
1.03448275862068964e-01 8.62068965517241326e-01 0 
1.37931034482758619e-01 8.62068965517241326e-01 0 
1.72413793103448287e-01 8.62068965517241326e-01 0 
2.06896551724137928e-01 8.62068965517241326e-01 0 
2.41379310344827569e-01 8.62068965517241326e-01 0 
2.75862068965517238e-01 8.62068965517241326e-01 0 
3.10344827586206906e-01 8.62068965517241326e-01 0 
3.44827586206896575e-01 8.62068965517241326e-01 0 
3.79310344827586188e-01 8.62068965517241326e-01 0 
4.13793103448275856e-01 8.62068965517241326e-01 0 
4.48275862068965525e-01 8.62068965517241326e-01 0 
4.82758620689655138e-01 8.62068965517241326e-01 0 
0.00000000000000000e+00 0.00000000000000000e+00 0 
0.00000000000000000e+00 8.96551724137931050e-01 0 
3.44827586206896547e-02 8.96551724137931050e-01 0 
6.89655172413793094e-02 8.96551724137931050e-01 0 
1.03448275862068964e-01 8.96551724137931050e-01 0 
1.37931034482758619e-01 8.96551724137931050e-01 0 
1.72413793103448287e-01 8.96551724137931050e-01 0 
2.06896551724137928e-01 8.96551724137931050e-01 0 
2.41379310344827569e-01 8.96551724137931050e-01 0 
2.75862068965517238e-01 8.96551724137931050e-01 0 
3.10344827586206906e-01 8.96551724137931050e-01 0 
3.44827586206896575e-01 8.96551724137931050e-01 0 
3.79310344827586188e-01 8.96551724137931050e-01 0 
4.13793103448275856e-01 8.96551724137931050e-01 0 
4.48275862068965525e-01 8.96551724137931050e-01 0 
4.82758620689655138e-01 8.96551724137931050e-01 0 
0.00000000000000000e+00 0.00000000000000000e+00 0 
0.00000000000000000e+00 9.31034482758620663e-01 0 
3.44827586206896547e-02 9.31034482758620663e-01 0 
6.89655172413793094e-02 9.31034482758620663e-01 0 
1.03448275862068964e-01 9.31034482758620663e-01 0 
1.37931034482758619e-01 9.31034482758620663e-01 0 
1.72413793103448287e-01 9.31034482758620663e-01 0 
2.06896551724137928e-01 9.31034482758620663e-01 0 
2.41379310344827569e-01 9.31034482758620663e-01 0 
2.75862068965517238e-01 9.31034482758620663e-01 0 
3.10344827586206906e-01 9.31034482758620663e-01 0 
3.44827586206896575e-01 9.31034482758620663e-01 0 
3.79310344827586188e-01 9.31034482758620663e-01 0 
4.13793103448275856e-01 9.31034482758620663e-01 0 
4.48275862068965525e-01 9.31034482758620663e-01 0 
4.82758620689655138e-01 9.31034482758620663e-01 0 
0.00000000000000000e+00 0.00000000000000000e+00 0 
0.00000000000000000e+00 9.65517241379310276e-01 0 
3.44827586206896547e-02 9.65517241379310276e-01 0 
6.89655172413793094e-02 9.65517241379310276e-01 0 
1.03448275862068964e-01 9.65517241379310276e-01 0 
1.37931034482758619e-01 9.65517241379310276e-01 0 
1.72413793103448287e-01 9.65517241379310276e-01 0 
2.06896551724137928e-01 9.65517241379310276e-01 0 
2.41379310344827569e-01 9.65517241379310276e-01 0 
2.75862068965517238e-01 9.65517241379310276e-01 0 
3.10344827586206906e-01 9.65517241379310276e-01 0 
3.44827586206896575e-01 9.65517241379310276e-01 0 
3.79310344827586188e-01 9.65517241379310276e-01 0 
4.13793103448275856e-01 9.65517241379310276e-01 0 
4.48275862068965525e-01 9.65517241379310276e-01 0 
4.82758620689655138e-01 9.65517241379310276e-01 0 
0.00000000000000000e+00 0.00000000000000000e+00 0 
0.00000000000000000e+00 1.00000000000000000e+00 0 
3.44827586206896547e-02 1.00000000000000000e+00 0 
6.89655172413793094e-02 1.00000000000000000e+00 0 
1.03448275862068964e-01 1.00000000000000000e+00 0 
1.37931034482758619e-01 1.00000000000000000e+00 0 
1.72413793103448287e-01 1.00000000000000000e+00 0 
2.06896551724137928e-01 1.00000000000000000e+00 0 
2.41379310344827569e-01 1.00000000000000000e+00 0 
2.75862068965517238e-01 1.00000000000000000e+00 0 
3.10344827586206906e-01 1.00000000000000000e+00 0 
3.44827586206896575e-01 1.00000000000000000e+00 0 
3.79310344827586188e-01 1.00000000000000000e+00 0 
4.13793103448275856e-01 1.00000000000000000e+00 0 
4.48275862068965525e-01 1.00000000000000000e+00 0 
4.82758620689655138e-01 1.00000000000000000e+00 0 
0.00000000000000000e+00 0.00000000000000000e+00 0 
</DataArray>
</Points>
<PointData>
<DataArray type="Float64" Name="heat" NumberOfComponents="1" format="ascii">
0.00000000000000000e+00
0.00000000000000000e+00
0.00000000000000000e+00
0.00000000000000000e+00
0.00000000000000000e+00
0.00000000000000000e+00
0.00000000000000000e+00
0.00000000000000000e+00
0.00000000000000000e+00
0.00000000000000000e+00
0.00000000000000000e+00
0.00000000000000000e+00
0.00000000000000000e+00
0.00000000000000000e+00
0.00000000000000000e+00
0.00000000000000000e+00
1.93507728894173403e+00
1.93626634958382793e+00
1.93983353151010696e+00
1.94577883472057067e+00
1.95410225921521974e+00
1.96480380499405460e+00
1.97788347205707504e+00
1.99334126040428061e+00
2.01117717003567531e+00
2.03139120095125003e+00
2.05398335315101388e+00
2.07895362663495931e+00
2.10630202140309386e+00
2.13602853745541088e+00
2.16813317479191481e+00
0.00000000000000000e+00
2.00879904875148441e+00
2.00998810939357986e+00
2.01355529131985644e+00
2.01950059453032216e+00
2.02782401902496723e+00
2.03852556480380320e+00
2.05160523186682120e+00
2.06706302021403010e+00
2.08489892984542147e+00
2.10511296076100063e+00
2.12770511296076092e+00
2.15267538644470857e+00
2.18002378121284091e+00
2.20975029726516281e+00
2.24185493460166629e+00
0.00000000000000000e+00
2.08727705112960704e+00
2.08846611177170072e+00
2.09203329369797775e+00
2.09797859690844213e+00
2.10630202140309031e+00
2.11700356718192628e+00
2.13008323424494250e+00
2.14554102259215229e+00
2.16337693222354144e+00
2.18359096313912149e+00
2.20618311533888445e+00
2.23115338882283121e+00
2.25850178359096398e+00
2.28822829964328278e+00
2.32033293697978849e+00
0.00000000000000000e+00
2.17051129607609949e+00
2.17170035671819450e+00
2.17526753864447064e+00
2.18121284185493458e+00
2.18953626634958498e+00
2.20023781212841874e+00
2.21331747919143851e+00
2.22877526753864474e+00
2.24661117717003611e+00
2.26682520808561128e+00
2.28941736028537557e+00
2.31438763376932233e+00
2.34173602853745377e+00
2.37146254458977301e+00
2.40356718192628138e+00
0.00000000000000000e+00
2.25850178359096088e+00
2.25969084423305677e+00
2.26325802615933558e+00
2.26920332936979952e+00
2.27752675386444858e+00
2.28822829964328234e+00
2.30130796670630033e+00
2.31676575505350790e+00
2.33460166468489838e+00
2.35481569560047399e+00
2.37740784780023828e+00
2.40237812128418504e+00
2.42972651605231693e+00
2.45945303210463884e+00
2.49155766944114054e+00
0.00000000000000000e+00
2.35124851367419874e+00
2.35243757431629064e+00
2.35600475624256989e+00
2.36195005945303382e+00
2.37027348394768156e+00
2.38097502972651665e+00
2.39405469678953509e+00
2.40951248513674177e+00
2.42734839476813002e+00
2.44756242568370874e+00
2.47015457788347215e+00
2.49512485136741979e+00
2.52247324613555524e+00
2.55219976218787048e+00
2.58430439952437663e+00
0.00000000000000000e+00
2.44875148632580153e+00
2.44994054696789698e+00
2.45350772889417179e+00
2.45945303210463706e+00
2.46777645659928657e+00
2.47847800237811899e+00
2.49155766944114010e+00
2.50701545778834856e+00
2.52485136741973770e+00
2.54506539833531376e+00
2.56765755053507849e+00
2.59262782401902570e+00
2.61997621878715981e+00
2.64970273483947860e+00
2.68180737217597986e+00
0.00000000000000000e+00
2.55101070154577458e+00
2.55219976218787270e+00
2.55576694411415017e+00
2.56171224732461189e+00
2.57003567181926007e+00
2.58073721759809604e+00
2.59381688466111582e+00
2.60927467300832117e+00
2.62711058263971653e+00
2.64732461355529347e+00
2.66991676575505466e+00
2.69488703923900053e+00
2.72223543400713641e+00
2.75196195005945432e+00
2.78406658739595736e+00
0.00000000000000000e+00
2.65802615933412456e+00
2.65921521997621868e+00
2.66278240190249527e+00
2.66872770511295965e+00
2.67705112960761049e+00
2.68775267538644558e+00
2.70083234244946446e+00
2.71629013079666937e+00
2.73412604042806340e+00
2.75434007134363945e+00
2.77693222354340463e+00
2.80190249702734917e+00
2.82925089179547973e+00
2.85897740784780074e+00
2.89108204518430512e+00
0.00000000000000000e+00
2.76979785969084391e+00
2.77098692033293492e+00
2.77455410225921639e+00
2.78049940546967855e+00
2.78882282996432718e+00
2.79952437574316093e+00
2.81260404280618515e+00
2.82806183115338960e+00
2.84589774078477964e+00
2.86611177170035569e+00
2.88870392390011688e+00
2.91367419738406674e+00
2.94102259215220085e+00
2.97074910820452009e+00
3.00285374554102358e+00
0.00000000000000000e+00
2.88632580261593041e+00
2.88751486325802675e+00
2.89108204518430290e+00
2.89702734839476950e+00
2.90535077288941679e+00
2.91605231866825143e+00
2.92913198573127032e+00
2.94458977407847655e+00
2.96242568370987014e+00
2.98263971462544530e+00
3.00523186682520915e+00
3.03020214030915547e+00
3.05755053507728825e+00
3.08727705112960793e+00
3.11938168846610964e+00
0.00000000000000000e+00
3.00760998810939251e+00
3.00879904875148618e+00
3.01236623067776321e+00
3.01831153388822626e+00
3.02663495838287622e+00
3.03733650416171308e+00
3.05041617122473285e+00
3.06587395957194131e+00
3.08370986920332957e+00
3.10392390011890473e+00
3.12651605231866725e+00
3.15148632580261312e+00
3.17883472057074856e+00
3.20856123662306736e+00
3.24066587395957173e+00
0.00000000000000000e+00
3.13365041617122264e+00
3.13483947681331498e+00
3.13840665873959379e+00
3.14435196195005684e+00
3.15267538644470680e+00
3.16337693222354410e+00
3.17645659928656343e+00
3.19191438763376967e+00
3.20975029726515926e+00
3.22996432818073531e+00
3.25255648038049827e+00
3.27752675386444592e+00
3.30487514863257781e+00
3.33460166468489927e+00
3.36670630202140231e+00
0.00000000000000000e+00
3.26444708680142393e+00
3.26563614744351938e+00
3.26920332936979863e+00
3.27514863258026168e+00
3.28347205707490897e+00
3.29417360285374494e+00
3.30725326991676560e+00
3.32271105826397006e+00
3.34054696789536143e+00
3.36076099881093793e+00
3.38335315101069956e+00
3.40832342449464853e+00
3.43567181926278264e+00
3.46539833531510366e+00
3.49750297265160581e+00
0.00000000000000000e+00
3.39999999999999636e+00
3.40118906064208870e+00
3.40475624256836884e+00
3.41070154577882922e+00
3.41902497027348140e+00
3.42972651605231604e+00
3.44280618311533537e+00
3.45826397146254028e+00
3.47609988109393386e+00
3.49631391200951036e+00
3.51890606420926888e+00
3.54387633769322008e+00
3.57122473246135241e+00
3.60095124851367077e+00
3.63305588585017247e+00
0.00000000000000000e+00
</DataArray>
</PointData>
</Piece>
</StructuredGrid>
</VTKFile>
