<?xml version="1.0"?>
<VTKFile type="StructuredGrid">
<StructuredGrid WholeExtent="14 29 0 15 0 0 ">
<Piece Extent="14 29 0 15 0 0 ">
<Points>
<DataArray type="Float64" Name="coordinate" NumberOfComponents="3" format="ascii">
0.00000000000000000e+00 0.00000000000000000e+00 0 
5.17241379310344862e-01 0.00000000000000000e+00 0 
5.51724137931034475e-01 0.00000000000000000e+00 0 
5.86206896551724088e-01 0.00000000000000000e+00 0 
6.20689655172413812e-01 0.00000000000000000e+00 0 
6.55172413793103425e-01 0.00000000000000000e+00 0 
6.89655172413793149e-01 0.00000000000000000e+00 0 
7.24137931034482762e-01 0.00000000000000000e+00 0 
7.58620689655172376e-01 0.00000000000000000e+00 0 
7.93103448275862100e-01 0.00000000000000000e+00 0 
8.27586206896551713e-01 0.00000000000000000e+00 0 
8.62068965517241326e-01 0.00000000000000000e+00 0 
8.96551724137931050e-01 0.00000000000000000e+00 0 
9.31034482758620663e-01 0.00000000000000000e+00 0 
9.65517241379310276e-01 0.00000000000000000e+00 0 
1.00000000000000000e+00 0.00000000000000000e+00 0 
0.00000000000000000e+00 0.00000000000000000e+00 0 
5.17241379310344862e-01 3.44827586206896547e-02 0 
5.51724137931034475e-01 3.44827586206896547e-02 0 
5.86206896551724088e-01 3.44827586206896547e-02 0 
6.20689655172413812e-01 3.44827586206896547e-02 0 
6.55172413793103425e-01 3.44827586206896547e-02 0 
6.89655172413793149e-01 3.44827586206896547e-02 0 
7.24137931034482762e-01 3.44827586206896547e-02 0 
7.58620689655172376e-01 3.44827586206896547e-02 0 
7.93103448275862100e-01 3.44827586206896547e-02 0 
8.27586206896551713e-01 3.44827586206896547e-02 0 
8.62068965517241326e-01 3.44827586206896547e-02 0 
8.96551724137931050e-01 3.44827586206896547e-02 0 
9.31034482758620663e-01 3.44827586206896547e-02 0 
9.65517241379310276e-01 3.44827586206896547e-02 0 
1.00000000000000000e+00 3.44827586206896547e-02 0 
0.00000000000000000e+00 0.00000000000000000e+00 0 
5.17241379310344862e-01 6.89655172413793094e-02 0 
5.51724137931034475e-01 6.89655172413793094e-02 0 
5.86206896551724088e-01 6.89655172413793094e-02 0 
6.20689655172413812e-01 6.89655172413793094e-02 0 
6.55172413793103425e-01 6.89655172413793094e-02 0 
6.89655172413793149e-01 6.89655172413793094e-02 0 
7.24137931034482762e-01 6.89655172413793094e-02 0 
7.58620689655172376e-01 6.89655172413793094e-02 0 
7.93103448275862100e-01 6.89655172413793094e-02 0 
8.27586206896551713e-01 6.89655172413793094e-02 0 
8.62068965517241326e-01 6.89655172413793094e-02 0 
8.96551724137931050e-01 6.89655172413793094e-02 0 
9.31034482758620663e-01 6.89655172413793094e-02 0 
9.65517241379310276e-01 6.89655172413793094e-02 0 
1.00000000000000000e+00 6.89655172413793094e-02 0 
0.00000000000000000e+00 0.00000000000000000e+00 0 
5.17241379310344862e-01 1.03448275862068964e-01 0 
5.51724137931034475e-01 1.03448275862068964e-01 0 
5.86206896551724088e-01 1.03448275862068964e-01 0 
6.20689655172413812e-01 1.03448275862068964e-01 0 
6.55172413793103425e-01 1.03448275862068964e-01 0 
6.89655172413793149e-01 1.03448275862068964e-01 0 
7.24137931034482762e-01 1.03448275862068964e-01 0 
7.58620689655172376e-01 1.03448275862068964e-01 0 
7.93103448275862100e-01 1.03448275862068964e-01 0 
8.27586206896551713e-01 1.03448275862068964e-01 0 
8.62068965517241326e-01 1.03448275862068964e-01 0 
8.96551724137931050e-01 1.03448275862068964e-01 0 
9.31034482758620663e-01 1.03448275862068964e-01 0 
9.65517241379310276e-01 1.03448275862068964e-01 0 
1.00000000000000000e+00 1.03448275862068964e-01 0 
0.00000000000000000e+00 0.00000000000000000e+00 0 
5.17241379310344862e-01 1.37931034482758619e-01 0 
5.51724137931034475e-01 1.37931034482758619e-01 0 
5.86206896551724088e-01 1.37931034482758619e-01 0 
6.20689655172413812e-01 1.37931034482758619e-01 0 
6.55172413793103425e-01 1.37931034482758619e-01 0 
6.89655172413793149e-01 1.37931034482758619e-01 0 
7.24137931034482762e-01 1.37931034482758619e-01 0 
7.58620689655172376e-01 1.37931034482758619e-01 0 
7.93103448275862100e-01 1.37931034482758619e-01 0 
8.27586206896551713e-01 1.37931034482758619e-01 0 
8.62068965517241326e-01 1.37931034482758619e-01 0 
8.96551724137931050e-01 1.37931034482758619e-01 0 
9.31034482758620663e-01 1.37931034482758619e-01 0 
9.65517241379310276e-01 1.37931034482758619e-01 0 
1.00000000000000000e+00 1.37931034482758619e-01 0 
0.00000000000000000e+00 0.00000000000000000e+00 0 
5.17241379310344862e-01 1.72413793103448287e-01 0 
5.51724137931034475e-01 1.72413793103448287e-01 0 
5.86206896551724088e-01 1.72413793103448287e-01 0 
6.20689655172413812e-01 1.72413793103448287e-01 0 
6.55172413793103425e-01 1.72413793103448287e-01 0 
6.89655172413793149e-01 1.72413793103448287e-01 0 
7.24137931034482762e-01 1.72413793103448287e-01 0 
7.58620689655172376e-01 1.72413793103448287e-01 0 
7.93103448275862100e-01 1.72413793103448287e-01 0 
8.27586206896551713e-01 1.72413793103448287e-01 0 
8.62068965517241326e-01 1.72413793103448287e-01 0 
8.96551724137931050e-01 1.72413793103448287e-01 0 
9.31034482758620663e-01 1.72413793103448287e-01 0 
9.65517241379310276e-01 1.72413793103448287e-01 0 
1.00000000000000000e+00 1.72413793103448287e-01 0 
0.00000000000000000e+00 0.00000000000000000e+00 0 
5.17241379310344862e-01 2.06896551724137928e-01 0 
5.51724137931034475e-01 2.06896551724137928e-01 0 
5.86206896551724088e-01 2.06896551724137928e-01 0 
6.20689655172413812e-01 2.06896551724137928e-01 0 
6.55172413793103425e-01 2.06896551724137928e-01 0 
6.89655172413793149e-01 2.06896551724137928e-01 0 
7.24137931034482762e-01 2.06896551724137928e-01 0 
7.58620689655172376e-01 2.06896551724137928e-01 0 
7.93103448275862100e-01 2.06896551724137928e-01 0 
8.27586206896551713e-01 2.06896551724137928e-01 0 
8.62068965517241326e-01 2.06896551724137928e-01 0 
8.96551724137931050e-01 2.06896551724137928e-01 0 
9.31034482758620663e-01 2.06896551724137928e-01 0 
9.65517241379310276e-01 2.06896551724137928e-01 0 
1.00000000000000000e+00 2.06896551724137928e-01 0 
0.00000000000000000e+00 0.00000000000000000e+00 0 
5.17241379310344862e-01 2.41379310344827569e-01 0 
5.51724137931034475e-01 2.41379310344827569e-01 0 
5.86206896551724088e-01 2.41379310344827569e-01 0 
6.20689655172413812e-01 2.41379310344827569e-01 0 
6.55172413793103425e-01 2.41379310344827569e-01 0 
6.89655172413793149e-01 2.41379310344827569e-01 0 
7.24137931034482762e-01 2.41379310344827569e-01 0 
7.58620689655172376e-01 2.41379310344827569e-01 0 
7.93103448275862100e-01 2.41379310344827569e-01 0 
8.27586206896551713e-01 2.41379310344827569e-01 0 
8.62068965517241326e-01 2.41379310344827569e-01 0 
8.96551724137931050e-01 2.41379310344827569e-01 0 
9.31034482758620663e-01 2.41379310344827569e-01 0 
9.65517241379310276e-01 2.41379310344827569e-01 0 
1.00000000000000000e+00 2.41379310344827569e-01 0 
0.00000000000000000e+00 0.00000000000000000e+00 0 
5.17241379310344862e-01 2.75862068965517238e-01 0 
5.51724137931034475e-01 2.75862068965517238e-01 0 
5.86206896551724088e-01 2.75862068965517238e-01 0 
6.20689655172413812e-01 2.75862068965517238e-01 0 
6.55172413793103425e-01 2.75862068965517238e-01 0 
6.89655172413793149e-01 2.75862068965517238e-01 0 
7.24137931034482762e-01 2.75862068965517238e-01 0 
7.58620689655172376e-01 2.75862068965517238e-01 0 
7.93103448275862100e-01 2.75862068965517238e-01 0 
8.27586206896551713e-01 2.75862068965517238e-01 0 
8.62068965517241326e-01 2.75862068965517238e-01 0 
8.96551724137931050e-01 2.75862068965517238e-01 0 
9.31034482758620663e-01 2.75862068965517238e-01 0 
9.65517241379310276e-01 2.75862068965517238e-01 0 
1.00000000000000000e+00 2.75862068965517238e-01 0 
0.00000000000000000e+00 0.00000000000000000e+00 0 
5.17241379310344862e-01 3.10344827586206906e-01 0 
5.51724137931034475e-01 3.10344827586206906e-01 0 
5.86206896551724088e-01 3.10344827586206906e-01 0 
6.20689655172413812e-01 3.10344827586206906e-01 0 
6.55172413793103425e-01 3.10344827586206906e-01 0 
6.89655172413793149e-01 3.10344827586206906e-01 0 
7.24137931034482762e-01 3.10344827586206906e-01 0 
7.58620689655172376e-01 3.10344827586206906e-01 0 
7.93103448275862100e-01 3.10344827586206906e-01 0 
8.27586206896551713e-01 3.10344827586206906e-01 0 
8.62068965517241326e-01 3.10344827586206906e-01 0 
8.96551724137931050e-01 3.10344827586206906e-01 0 
9.31034482758620663e-01 3.10344827586206906e-01 0 
9.65517241379310276e-01 3.10344827586206906e-01 0 
1.00000000000000000e+00 3.10344827586206906e-01 0 
0.00000000000000000e+00 0.00000000000000000e+00 0 
5.17241379310344862e-01 3.44827586206896575e-01 0 
5.51724137931034475e-01 3.44827586206896575e-01 0 
5.86206896551724088e-01 3.44827586206896575e-01 0 
6.20689655172413812e-01 3.44827586206896575e-01 0 
6.55172413793103425e-01 3.44827586206896575e-01 0 
6.89655172413793149e-01 3.44827586206896575e-01 0 
7.24137931034482762e-01 3.44827586206896575e-01 0 
7.58620689655172376e-01 3.44827586206896575e-01 0 
7.93103448275862100e-01 3.44827586206896575e-01 0 
8.27586206896551713e-01 3.44827586206896575e-01 0 
8.62068965517241326e-01 3.44827586206896575e-01 0 
8.96551724137931050e-01 3.44827586206896575e-01 0 
9.31034482758620663e-01 3.44827586206896575e-01 0 
9.65517241379310276e-01 3.44827586206896575e-01 0 
1.00000000000000000e+00 3.44827586206896575e-01 0 
0.00000000000000000e+00 0.00000000000000000e+00 0 
5.17241379310344862e-01 3.79310344827586188e-01 0 
5.51724137931034475e-01 3.79310344827586188e-01 0 
5.86206896551724088e-01 3.79310344827586188e-01 0 
6.20689655172413812e-01 3.79310344827586188e-01 0 
6.55172413793103425e-01 3.79310344827586188e-01 0 
6.89655172413793149e-01 3.79310344827586188e-01 0 
7.24137931034482762e-01 3.79310344827586188e-01 0 
7.58620689655172376e-01 3.79310344827586188e-01 0 
7.93103448275862100e-01 3.79310344827586188e-01 0 
8.27586206896551713e-01 3.79310344827586188e-01 0 
8.62068965517241326e-01 3.79310344827586188e-01 0 
8.96551724137931050e-01 3.79310344827586188e-01 0 
9.31034482758620663e-01 3.79310344827586188e-01 0 
9.65517241379310276e-01 3.79310344827586188e-01 0 
1.00000000000000000e+00 3.79310344827586188e-01 0 
0.00000000000000000e+00 0.00000000000000000e+00 0 
5.17241379310344862e-01 4.13793103448275856e-01 0 
5.51724137931034475e-01 4.13793103448275856e-01 0 
5.86206896551724088e-01 4.13793103448275856e-01 0 
6.20689655172413812e-01 4.13793103448275856e-01 0 
6.55172413793103425e-01 4.13793103448275856e-01 0 
6.89655172413793149e-01 4.13793103448275856e-01 0 
7.24137931034482762e-01 4.13793103448275856e-01 0 
7.58620689655172376e-01 4.13793103448275856e-01 0 
7.93103448275862100e-01 4.13793103448275856e-01 0 
8.27586206896551713e-01 4.13793103448275856e-01 0 
8.62068965517241326e-01 4.13793103448275856e-01 0 
8.96551724137931050e-01 4.13793103448275856e-01 0 
9.31034482758620663e-01 4.13793103448275856e-01 0 
9.65517241379310276e-01 4.13793103448275856e-01 0 
1.00000000000000000e+00 4.13793103448275856e-01 0 
0.00000000000000000e+00 0.00000000000000000e+00 0 
5.17241379310344862e-01 4.48275862068965525e-01 0 
5.51724137931034475e-01 4.48275862068965525e-01 0 
5.86206896551724088e-01 4.48275862068965525e-01 0 
6.20689655172413812e-01 4.48275862068965525e-01 0 
6.55172413793103425e-01 4.48275862068965525e-01 0 
6.89655172413793149e-01 4.48275862068965525e-01 0 
7.24137931034482762e-01 4.48275862068965525e-01 0 
7.58620689655172376e-01 4.48275862068965525e-01 0 
7.93103448275862100e-01 4.48275862068965525e-01 0 
8.27586206896551713e-01 4.48275862068965525e-01 0 
8.62068965517241326e-01 4.48275862068965525e-01 0 
8.96551724137931050e-01 4.48275862068965525e-01 0 
9.31034482758620663e-01 4.48275862068965525e-01 0 
9.65517241379310276e-01 4.48275862068965525e-01 0 
1.00000000000000000e+00 4.48275862068965525e-01 0 
0.00000000000000000e+00 0.00000000000000000e+00 0 
5.17241379310344862e-01 4.82758620689655138e-01 0 
5.51724137931034475e-01 4.82758620689655138e-01 0 
5.86206896551724088e-01 4.82758620689655138e-01 0 
6.20689655172413812e-01 4.82758620689655138e-01 0 
6.55172413793103425e-01 4.82758620689655138e-01 0 
6.89655172413793149e-01 4.82758620689655138e-01 0 
7.24137931034482762e-01 4.82758620689655138e-01 0 
7.58620689655172376e-01 4.82758620689655138e-01 0 
7.93103448275862100e-01 4.82758620689655138e-01 0 
8.27586206896551713e-01 4.82758620689655138e-01 0 
8.62068965517241326e-01 4.82758620689655138e-01 0 
8.96551724137931050e-01 4.82758620689655138e-01 0 
9.31034482758620663e-01 4.82758620689655138e-01 0 
9.65517241379310276e-01 4.82758620689655138e-01 0 
1.00000000000000000e+00 4.82758620689655138e-01 0 
0.00000000000000000e+00 0.00000000000000000e+00 0 
0.00000000000000000e+00 0.00000000000000000e+00 0 
0.00000000000000000e+00 0.00000000000000000e+00 0 
0.00000000000000000e+00 0.00000000000000000e+00 0 
0.00000000000000000e+00 0.00000000000000000e+00 0 
0.00000000000000000e+00 0.00000000000000000e+00 0 
0.00000000000000000e+00 0.00000000000000000e+00 0 
0.00000000000000000e+00 0.00000000000000000e+00 0 
0.00000000000000000e+00 0.00000000000000000e+00 0 
0.00000000000000000e+00 0.00000000000000000e+00 0 
0.00000000000000000e+00 0.00000000000000000e+00 0 
0.00000000000000000e+00 0.00000000000000000e+00 0 
0.00000000000000000e+00 0.00000000000000000e+00 0 
0.00000000000000000e+00 0.00000000000000000e+00 0 
0.00000000000000000e+00 0.00000000000000000e+00 0 
0.00000000000000000e+00 0.00000000000000000e+00 0 
</DataArray>
</Points>
<PointData>
<DataArray type="Float64" Name="heat" NumberOfComponents="1" format="ascii">
0.00000000000000000e+00
5.26753864447086517e+00
5.30439952437574203e+00
5.34363852556480445e+00
5.38525564803804357e+00
5.42925089179547893e+00
5.47562425683709186e+00
5.52437574316289837e+00
5.57550535077288512e+00
5.62901307966706366e+00
5.68489892984542067e+00
5.74316290130796769e+00
5.80380499405469141e+00
5.86682520808561314e+00
5.93222354340071334e+00
6.00000000000000178e+00
0.00000000000000000e+00
5.26991676575504631e+00
5.30677764565992049e+00
5.34601664684899269e+00
5.38763376932223537e+00
5.43162901307966628e+00
5.47800237812128366e+00
5.52675386444708927e+00
5.57788347205706980e+00
5.63139120095124657e+00
5.68727705112960624e+00
5.74554102259215060e+00
5.80618311533887788e+00
5.86920332936979605e+00
5.93460166468490158e+00
6.00237812128418380e+00
0.00000000000000000e+00
5.27705112960760481e+00
5.31391200951248344e+00
5.35315101070154675e+00
5.39476813317479209e+00
5.43876337693222300e+00
5.48513674197383949e+00
5.53388822829963800e+00
5.58501783590962830e+00
5.63852556480380684e+00
5.69441141498216119e+00
5.75267538644470910e+00
5.81331747919143904e+00
5.87633769322234834e+00
5.94173602853745564e+00
6.00951248513673786e+00
0.00000000000000000e+00
5.28894173602852913e+00
5.32580261593340953e+00
5.36504161712247285e+00
5.40665873959571996e+00
5.45065398335315265e+00
5.49702734839476914e+00
5.54577883472057476e+00
5.59690844233056062e+00
5.65041617122472939e+00
5.70630202140309173e+00
5.76456599286563520e+00
5.82520808561236425e+00
5.88822829964328065e+00
5.95362663495837818e+00
6.02140309155766573e+00
0.00000000000000000e+00
5.30558858501783170e+00
5.34244946492270678e+00
5.38168846611177276e+00
5.42330558858502076e+00
5.46730083234244990e+00
5.51367419738406461e+00
5.56242568370986845e+00
5.61355529131985520e+00
5.66706302021403285e+00
5.72294887039239342e+00
5.78121284185493156e+00
5.84185493460166505e+00
5.90487514863258056e+00
5.97027348394768076e+00
6.03804994054696742e+00
0.00000000000000000e+00
5.32699167657550632e+00
5.36385255648038139e+00
5.40309155766943761e+00
5.44470868014268383e+00
5.48870392390011741e+00
5.53507728894173656e+00
5.58382877526754040e+00
5.63495838287752715e+00
5.68846611177170036e+00
5.74435196195006270e+00
5.80261593341260706e+00
5.86325802615933700e+00
5.92627824019025073e+00
5.99167657550534827e+00
6.05945303210462960e+00
0.00000000000000000e+00
5.35315101070154409e+00
5.39001189060642183e+00
5.42925089179547626e+00
5.47086801426872249e+00
5.51486325802615429e+00
5.56123662306777611e+00
5.60998810939358084e+00
5.66111771700356403e+00
5.71462544589773636e+00
5.77051129607610136e+00
5.82877526753864217e+00
5.88941736028537477e+00
5.95243757431628762e+00
6.01783590963139492e+00
6.08561236623067536e+00
0.00000000000000000e+00
5.38406658739595922e+00
5.42092746730082986e+00
5.46016646848988785e+00
5.50178359096313496e+00
5.54577883472056854e+00
5.59215219976218414e+00
5.64090368608798887e+00
5.69203329369797384e+00
5.74554102259214972e+00
5.80142687277051117e+00
5.85969084423305819e+00
5.92033293697978813e+00
5.98335315101070186e+00
6.04875148632580029e+00
6.11652794292508695e+00
0.00000000000000000e+00
5.41973840665873841e+00
5.45659928656361526e+00
5.49583828775267591e+00
5.53745541022592125e+00
5.58145065398334772e+00
5.62782401902496421e+00
5.67657550535077071e+00
5.72770511296076190e+00
5.78121284185493423e+00
5.83709869203329479e+00
5.89536266349583471e+00
5.95600475624257086e+00
6.01902497027348105e+00
6.08442330558858036e+00
6.15219976218786613e+00
0.00000000000000000e+00
5.46016646848989495e+00
5.49702734839476914e+00
5.53626634958382624e+00
5.57788347205706714e+00
5.62187871581450160e+00
5.66825208085611809e+00
5.71700356718192637e+00
5.76813317479191578e+00
5.82164090368608633e+00
5.87752675386444601e+00
5.93579072532699481e+00
5.99643281807372119e+00
6.05945303210463315e+00
6.12485136741973335e+00
6.19262782401902001e+00
0.00000000000000000e+00
5.50535077288941999e+00
5.54221165279429329e+00
5.58145065398335127e+00
5.62306777645659839e+00
5.66706302021403108e+00
5.71343638525564224e+00
5.76218787158144785e+00
5.81331747919143904e+00
5.86682520808561137e+00
5.92271105826397015e+00
5.98097502972651540e+00
6.04161712247324267e+00
6.10463733650416085e+00
6.17003567181926194e+00
6.23781212841854416e+00
0.00000000000000000e+00
5.55529131985731528e+00
5.59215219976219036e+00
5.63139120095124746e+00
5.67300832342449102e+00
5.71700356718192904e+00
5.76337693222353753e+00
5.81212841854934936e+00
5.86325802615933700e+00
5.91676575505350399e+00
5.97265160523186456e+00
6.03091557669440892e+00
6.09155766944113974e+00
6.15457788347205881e+00
6.21997621878715901e+00
6.28775267538644300e+00
0.00000000000000000e+00
5.60998810939357995e+00
5.64684898929844881e+00
5.68608799048751123e+00
5.72770511296076013e+00
5.77170035671819104e+00
5.81807372175981019e+00
5.86682520808561048e+00
5.91795481569560167e+00
5.97146254458977488e+00
6.02734839476813189e+00
6.08561236623067803e+00
6.14625445897740530e+00
6.20927467300832259e+00
6.27467300832341923e+00
6.34244946492270678e+00
0.00000000000000000e+00
5.66944114149821310e+00
5.70630202140308818e+00
5.74554102259214883e+00
5.78715814506539417e+00
5.83115338882283218e+00
5.87752675386444956e+00
5.92627824019024896e+00
5.97740784780023482e+00
6.03091557669441070e+00
6.08680142687277392e+00
6.14506539833531207e+00
6.20570749108204733e+00
6.26872770511295840e+00
6.33412604042805683e+00
6.40190249702734349e+00
0.00000000000000000e+00
5.73365041617121918e+00
5.77051129607609248e+00
5.80975029726515846e+00
5.85136741973840202e+00
5.89536266349583915e+00
5.94173602853745031e+00
5.99048751486325859e+00
6.04161712247324623e+00
6.09512485136741766e+00
6.15101070154577911e+00
6.20927467300831815e+00
6.26991676575505430e+00
6.33293697978596626e+00
6.39833531510106468e+00
6.46611177170034956e+00
0.00000000000000000e+00
0.00000000000000000e+00
0.00000000000000000e+00
0.00000000000000000e+00
0.00000000000000000e+00
0.00000000000000000e+00
0.00000000000000000e+00
0.00000000000000000e+00
0.00000000000000000e+00
0.00000000000000000e+00
0.00000000000000000e+00
0.00000000000000000e+00
0.00000000000000000e+00
0.00000000000000000e+00
0.00000000000000000e+00
0.00000000000000000e+00
</DataArray>
</PointData>
</Piece>
</StructuredGrid>
</VTKFile>
