<?xml version="1.0"?>
<VTKFile type="StructuredGrid">
<StructuredGrid WholeExtent="14 29 0 15 0 0 ">
<Piece Extent="14 29 0 15 0 0 ">
<Points>
<DataArray type="Float64" Name="coordinate" NumberOfComponents="3" format="ascii">
0.00000000000000000e+00 0.00000000000000000e+00 0 
5.17241379310344862e-01 0.00000000000000000e+00 0 
5.51724137931034475e-01 0.00000000000000000e+00 0 
5.86206896551724088e-01 0.00000000000000000e+00 0 
6.20689655172413812e-01 0.00000000000000000e+00 0 
6.55172413793103425e-01 0.00000000000000000e+00 0 
6.89655172413793149e-01 0.00000000000000000e+00 0 
7.24137931034482762e-01 0.00000000000000000e+00 0 
7.58620689655172376e-01 0.00000000000000000e+00 0 
7.93103448275862100e-01 0.00000000000000000e+00 0 
8.27586206896551713e-01 0.00000000000000000e+00 0 
8.62068965517241326e-01 0.00000000000000000e+00 0 
8.96551724137931050e-01 0.00000000000000000e+00 0 
9.31034482758620663e-01 0.00000000000000000e+00 0 
9.65517241379310276e-01 0.00000000000000000e+00 0 
1.00000000000000000e+00 0.00000000000000000e+00 0 
0.00000000000000000e+00 0.00000000000000000e+00 0 
5.17241379310344862e-01 3.44827586206896547e-02 0 
5.51724137931034475e-01 3.44827586206896547e-02 0 
5.86206896551724088e-01 3.44827586206896547e-02 0 
6.20689655172413812e-01 3.44827586206896547e-02 0 
6.55172413793103425e-01 3.44827586206896547e-02 0 
6.89655172413793149e-01 3.44827586206896547e-02 0 
7.24137931034482762e-01 3.44827586206896547e-02 0 
7.58620689655172376e-01 3.44827586206896547e-02 0 
7.93103448275862100e-01 3.44827586206896547e-02 0 
8.27586206896551713e-01 3.44827586206896547e-02 0 
8.62068965517241326e-01 3.44827586206896547e-02 0 
8.96551724137931050e-01 3.44827586206896547e-02 0 
9.31034482758620663e-01 3.44827586206896547e-02 0 
9.65517241379310276e-01 3.44827586206896547e-02 0 
1.00000000000000000e+00 3.44827586206896547e-02 0 
0.00000000000000000e+00 0.00000000000000000e+00 0 
5.17241379310344862e-01 6.89655172413793094e-02 0 
5.51724137931034475e-01 6.89655172413793094e-02 0 
5.86206896551724088e-01 6.89655172413793094e-02 0 
6.20689655172413812e-01 6.89655172413793094e-02 0 
6.55172413793103425e-01 6.89655172413793094e-02 0 
6.89655172413793149e-01 6.89655172413793094e-02 0 
7.24137931034482762e-01 6.89655172413793094e-02 0 
7.58620689655172376e-01 6.89655172413793094e-02 0 
7.93103448275862100e-01 6.89655172413793094e-02 0 
8.27586206896551713e-01 6.89655172413793094e-02 0 
8.62068965517241326e-01 6.89655172413793094e-02 0 
8.96551724137931050e-01 6.89655172413793094e-02 0 
9.31034482758620663e-01 6.89655172413793094e-02 0 
9.65517241379310276e-01 6.89655172413793094e-02 0 
1.00000000000000000e+00 6.89655172413793094e-02 0 
0.00000000000000000e+00 0.00000000000000000e+00 0 
5.17241379310344862e-01 1.03448275862068964e-01 0 
5.51724137931034475e-01 1.03448275862068964e-01 0 
5.86206896551724088e-01 1.03448275862068964e-01 0 
6.20689655172413812e-01 1.03448275862068964e-01 0 
6.55172413793103425e-01 1.03448275862068964e-01 0 
6.89655172413793149e-01 1.03448275862068964e-01 0 
7.24137931034482762e-01 1.03448275862068964e-01 0 
7.58620689655172376e-01 1.03448275862068964e-01 0 
7.93103448275862100e-01 1.03448275862068964e-01 0 
8.27586206896551713e-01 1.03448275862068964e-01 0 
8.62068965517241326e-01 1.03448275862068964e-01 0 
8.96551724137931050e-01 1.03448275862068964e-01 0 
9.31034482758620663e-01 1.03448275862068964e-01 0 
9.65517241379310276e-01 1.03448275862068964e-01 0 
1.00000000000000000e+00 1.03448275862068964e-01 0 
0.00000000000000000e+00 0.00000000000000000e+00 0 
5.17241379310344862e-01 1.37931034482758619e-01 0 
5.51724137931034475e-01 1.37931034482758619e-01 0 
5.86206896551724088e-01 1.37931034482758619e-01 0 
6.20689655172413812e-01 1.37931034482758619e-01 0 
6.55172413793103425e-01 1.37931034482758619e-01 0 
6.89655172413793149e-01 1.37931034482758619e-01 0 
7.24137931034482762e-01 1.37931034482758619e-01 0 
7.58620689655172376e-01 1.37931034482758619e-01 0 
7.93103448275862100e-01 1.37931034482758619e-01 0 
8.27586206896551713e-01 1.37931034482758619e-01 0 
8.62068965517241326e-01 1.37931034482758619e-01 0 
8.96551724137931050e-01 1.37931034482758619e-01 0 
9.31034482758620663e-01 1.37931034482758619e-01 0 
9.65517241379310276e-01 1.37931034482758619e-01 0 
1.00000000000000000e+00 1.37931034482758619e-01 0 
0.00000000000000000e+00 0.00000000000000000e+00 0 
5.17241379310344862e-01 1.72413793103448287e-01 0 
5.51724137931034475e-01 1.72413793103448287e-01 0 
5.86206896551724088e-01 1.72413793103448287e-01 0 
6.20689655172413812e-01 1.72413793103448287e-01 0 
6.55172413793103425e-01 1.72413793103448287e-01 0 
6.89655172413793149e-01 1.72413793103448287e-01 0 
7.24137931034482762e-01 1.72413793103448287e-01 0 
7.58620689655172376e-01 1.72413793103448287e-01 0 
7.93103448275862100e-01 1.72413793103448287e-01 0 
8.27586206896551713e-01 1.72413793103448287e-01 0 
8.62068965517241326e-01 1.72413793103448287e-01 0 
8.96551724137931050e-01 1.72413793103448287e-01 0 
9.31034482758620663e-01 1.72413793103448287e-01 0 
9.65517241379310276e-01 1.72413793103448287e-01 0 
1.00000000000000000e+00 1.72413793103448287e-01 0 
0.00000000000000000e+00 0.00000000000000000e+00 0 
5.17241379310344862e-01 2.06896551724137928e-01 0 
5.51724137931034475e-01 2.06896551724137928e-01 0 
5.86206896551724088e-01 2.06896551724137928e-01 0 
6.20689655172413812e-01 2.06896551724137928e-01 0 
6.55172413793103425e-01 2.06896551724137928e-01 0 
6.89655172413793149e-01 2.06896551724137928e-01 0 
7.24137931034482762e-01 2.06896551724137928e-01 0 
7.58620689655172376e-01 2.06896551724137928e-01 0 
7.93103448275862100e-01 2.06896551724137928e-01 0 
8.27586206896551713e-01 2.06896551724137928e-01 0 
8.62068965517241326e-01 2.06896551724137928e-01 0 
8.96551724137931050e-01 2.06896551724137928e-01 0 
9.31034482758620663e-01 2.06896551724137928e-01 0 
9.65517241379310276e-01 2.06896551724137928e-01 0 
1.00000000000000000e+00 2.06896551724137928e-01 0 
0.00000000000000000e+00 0.00000000000000000e+00 0 
5.17241379310344862e-01 2.41379310344827569e-01 0 
5.51724137931034475e-01 2.41379310344827569e-01 0 
5.86206896551724088e-01 2.41379310344827569e-01 0 
6.20689655172413812e-01 2.41379310344827569e-01 0 
6.55172413793103425e-01 2.41379310344827569e-01 0 
6.89655172413793149e-01 2.41379310344827569e-01 0 
7.24137931034482762e-01 2.41379310344827569e-01 0 
7.58620689655172376e-01 2.41379310344827569e-01 0 
7.93103448275862100e-01 2.41379310344827569e-01 0 
8.27586206896551713e-01 2.41379310344827569e-01 0 
8.62068965517241326e-01 2.41379310344827569e-01 0 
8.96551724137931050e-01 2.41379310344827569e-01 0 
9.31034482758620663e-01 2.41379310344827569e-01 0 
9.65517241379310276e-01 2.41379310344827569e-01 0 
1.00000000000000000e+00 2.41379310344827569e-01 0 
0.00000000000000000e+00 0.00000000000000000e+00 0 
5.17241379310344862e-01 2.75862068965517238e-01 0 
5.51724137931034475e-01 2.75862068965517238e-01 0 
5.86206896551724088e-01 2.75862068965517238e-01 0 
6.20689655172413812e-01 2.75862068965517238e-01 0 
6.55172413793103425e-01 2.75862068965517238e-01 0 
6.89655172413793149e-01 2.75862068965517238e-01 0 
7.24137931034482762e-01 2.75862068965517238e-01 0 
7.58620689655172376e-01 2.75862068965517238e-01 0 
7.93103448275862100e-01 2.75862068965517238e-01 0 
8.27586206896551713e-01 2.75862068965517238e-01 0 
8.62068965517241326e-01 2.75862068965517238e-01 0 
8.96551724137931050e-01 2.75862068965517238e-01 0 
9.31034482758620663e-01 2.75862068965517238e-01 0 
9.65517241379310276e-01 2.75862068965517238e-01 0 
1.00000000000000000e+00 2.75862068965517238e-01 0 
0.00000000000000000e+00 0.00000000000000000e+00 0 
5.17241379310344862e-01 3.10344827586206906e-01 0 
5.51724137931034475e-01 3.10344827586206906e-01 0 
5.86206896551724088e-01 3.10344827586206906e-01 0 
6.20689655172413812e-01 3.10344827586206906e-01 0 
6.55172413793103425e-01 3.10344827586206906e-01 0 
6.89655172413793149e-01 3.10344827586206906e-01 0 
7.24137931034482762e-01 3.10344827586206906e-01 0 
7.58620689655172376e-01 3.10344827586206906e-01 0 
7.93103448275862100e-01 3.10344827586206906e-01 0 
8.27586206896551713e-01 3.10344827586206906e-01 0 
8.62068965517241326e-01 3.10344827586206906e-01 0 
8.96551724137931050e-01 3.10344827586206906e-01 0 
9.31034482758620663e-01 3.10344827586206906e-01 0 
9.65517241379310276e-01 3.10344827586206906e-01 0 
1.00000000000000000e+00 3.10344827586206906e-01 0 
0.00000000000000000e+00 0.00000000000000000e+00 0 
5.17241379310344862e-01 3.44827586206896575e-01 0 
5.51724137931034475e-01 3.44827586206896575e-01 0 
5.86206896551724088e-01 3.44827586206896575e-01 0 
6.20689655172413812e-01 3.44827586206896575e-01 0 
6.55172413793103425e-01 3.44827586206896575e-01 0 
6.89655172413793149e-01 3.44827586206896575e-01 0 
7.24137931034482762e-01 3.44827586206896575e-01 0 
7.58620689655172376e-01 3.44827586206896575e-01 0 
7.93103448275862100e-01 3.44827586206896575e-01 0 
8.27586206896551713e-01 3.44827586206896575e-01 0 
8.62068965517241326e-01 3.44827586206896575e-01 0 
8.96551724137931050e-01 3.44827586206896575e-01 0 
9.31034482758620663e-01 3.44827586206896575e-01 0 
9.65517241379310276e-01 3.44827586206896575e-01 0 
1.00000000000000000e+00 3.44827586206896575e-01 0 
0.00000000000000000e+00 0.00000000000000000e+00 0 
5.17241379310344862e-01 3.79310344827586188e-01 0 
5.51724137931034475e-01 3.79310344827586188e-01 0 
5.86206896551724088e-01 3.79310344827586188e-01 0 
6.20689655172413812e-01 3.79310344827586188e-01 0 
6.55172413793103425e-01 3.79310344827586188e-01 0 
6.89655172413793149e-01 3.79310344827586188e-01 0 
7.24137931034482762e-01 3.79310344827586188e-01 0 
7.58620689655172376e-01 3.79310344827586188e-01 0 
7.93103448275862100e-01 3.79310344827586188e-01 0 
8.27586206896551713e-01 3.79310344827586188e-01 0 
8.62068965517241326e-01 3.79310344827586188e-01 0 
8.96551724137931050e-01 3.79310344827586188e-01 0 
9.31034482758620663e-01 3.79310344827586188e-01 0 
9.65517241379310276e-01 3.79310344827586188e-01 0 
1.00000000000000000e+00 3.79310344827586188e-01 0 
0.00000000000000000e+00 0.00000000000000000e+00 0 
5.17241379310344862e-01 4.13793103448275856e-01 0 
5.51724137931034475e-01 4.13793103448275856e-01 0 
5.86206896551724088e-01 4.13793103448275856e-01 0 
6.20689655172413812e-01 4.13793103448275856e-01 0 
6.55172413793103425e-01 4.13793103448275856e-01 0 
6.89655172413793149e-01 4.13793103448275856e-01 0 
7.24137931034482762e-01 4.13793103448275856e-01 0 
7.58620689655172376e-01 4.13793103448275856e-01 0 
7.93103448275862100e-01 4.13793103448275856e-01 0 
8.27586206896551713e-01 4.13793103448275856e-01 0 
8.62068965517241326e-01 4.13793103448275856e-01 0 
8.96551724137931050e-01 4.13793103448275856e-01 0 
9.31034482758620663e-01 4.13793103448275856e-01 0 
9.65517241379310276e-01 4.13793103448275856e-01 0 
1.00000000000000000e+00 4.13793103448275856e-01 0 
0.00000000000000000e+00 0.00000000000000000e+00 0 
5.17241379310344862e-01 4.48275862068965525e-01 0 
5.51724137931034475e-01 4.48275862068965525e-01 0 
5.86206896551724088e-01 4.48275862068965525e-01 0 
6.20689655172413812e-01 4.48275862068965525e-01 0 
6.55172413793103425e-01 4.48275862068965525e-01 0 
6.89655172413793149e-01 4.48275862068965525e-01 0 
7.24137931034482762e-01 4.48275862068965525e-01 0 
7.58620689655172376e-01 4.48275862068965525e-01 0 
7.93103448275862100e-01 4.48275862068965525e-01 0 
8.27586206896551713e-01 4.48275862068965525e-01 0 
8.62068965517241326e-01 4.48275862068965525e-01 0 
8.96551724137931050e-01 4.48275862068965525e-01 0 
9.31034482758620663e-01 4.48275862068965525e-01 0 
9.65517241379310276e-01 4.48275862068965525e-01 0 
1.00000000000000000e+00 4.48275862068965525e-01 0 
0.00000000000000000e+00 0.00000000000000000e+00 0 
5.17241379310344862e-01 4.82758620689655138e-01 0 
5.51724137931034475e-01 4.82758620689655138e-01 0 
5.86206896551724088e-01 4.82758620689655138e-01 0 
6.20689655172413812e-01 4.82758620689655138e-01 0 
6.55172413793103425e-01 4.82758620689655138e-01 0 
6.89655172413793149e-01 4.82758620689655138e-01 0 
7.24137931034482762e-01 4.82758620689655138e-01 0 
7.58620689655172376e-01 4.82758620689655138e-01 0 
7.93103448275862100e-01 4.82758620689655138e-01 0 
8.27586206896551713e-01 4.82758620689655138e-01 0 
8.62068965517241326e-01 4.82758620689655138e-01 0 
8.96551724137931050e-01 4.82758620689655138e-01 0 
9.31034482758620663e-01 4.82758620689655138e-01 0 
9.65517241379310276e-01 4.82758620689655138e-01 0 
1.00000000000000000e+00 4.82758620689655138e-01 0 
0.00000000000000000e+00 0.00000000000000000e+00 0 
0.00000000000000000e+00 0.00000000000000000e+00 0 
0.00000000000000000e+00 0.00000000000000000e+00 0 
0.00000000000000000e+00 0.00000000000000000e+00 0 
0.00000000000000000e+00 0.00000000000000000e+00 0 
0.00000000000000000e+00 0.00000000000000000e+00 0 
0.00000000000000000e+00 0.00000000000000000e+00 0 
0.00000000000000000e+00 0.00000000000000000e+00 0 
0.00000000000000000e+00 0.00000000000000000e+00 0 
0.00000000000000000e+00 0.00000000000000000e+00 0 
0.00000000000000000e+00 0.00000000000000000e+00 0 
0.00000000000000000e+00 0.00000000000000000e+00 0 
0.00000000000000000e+00 0.00000000000000000e+00 0 
0.00000000000000000e+00 0.00000000000000000e+00 0 
0.00000000000000000e+00 0.00000000000000000e+00 0 
0.00000000000000000e+00 0.00000000000000000e+00 0 
</DataArray>
</Points>
<PointData>
<DataArray type="Float64" Name="heat" NumberOfComponents="1" format="ascii">
0.00000000000000000e+00
3.66753864447086642e+00
3.70439952437574105e+00
3.74363852556480170e+00
3.78525564803804349e+00
3.82925089179547884e+00
3.87562425683709577e+00
3.92437574316289783e+00
3.97550535077288636e+00
4.02901307966706046e+00
4.08489892984541836e+00
4.14316290130796627e+00
4.20380499405469354e+00
4.26682520808561083e+00
4.33222354340071192e+00
4.39999999999999858e+00
0.00000000000000000e+00
3.66991676575505199e+00
3.70677764565992751e+00
3.74601664684898816e+00
3.78763376932223750e+00
3.83162901307966663e+00
3.87800237812128534e+00
3.92675386444708696e+00
3.97788347205707682e+00
4.03139120095124515e+00
4.08727705112960749e+00
4.14554102259215096e+00
4.20618311533888001e+00
4.26920332936979641e+00
4.33460166468489483e+00
4.40237812128417971e+00
0.00000000000000000e+00
3.67705112960761049e+00
3.71391200951248557e+00
3.75315101070154622e+00
3.79476813317479111e+00
3.83876337693222469e+00
3.88513674197384473e+00
3.93388822829964591e+00
3.98501783590963088e+00
4.03852556480380631e+00
4.09441141498216243e+00
4.15267538644470857e+00
4.21331747919143673e+00
4.27633769322235668e+00
4.34173602853746132e+00
4.40951248513673733e+00
0.00000000000000000e+00
3.68894173602853614e+00
3.72580261593341522e+00
3.76504161712247143e+00
3.80665873959572121e+00
3.85065398335315301e+00
3.89702734839476816e+00
3.94577883472057245e+00
3.99690844233055698e+00
4.05041617122473063e+00
4.10630202140309208e+00
4.16456599286563645e+00
4.22520808561236993e+00
4.28822829964328278e+00
4.35362663495838564e+00
4.42140309155766875e+00
0.00000000000000000e+00
3.70558858501783561e+00
3.74244946492271158e+00
3.78168846611177134e+00
3.82330558858501846e+00
3.86730083234245070e+00
3.91367419738406852e+00
3.96242568370986969e+00
4.01355529131985822e+00
4.06706302021403054e+00
4.12294887039239288e+00
4.18121284185493725e+00
4.24185493460166452e+00
4.30487514863258358e+00
4.37027348394768023e+00
4.43804994054696422e+00
0.00000000000000000e+00
3.72699167657550712e+00
3.76385255648037953e+00
3.80309155766944240e+00
3.84470868014268774e+00
3.88870392390012087e+00
3.93507728894173825e+00
3.98382877526753854e+00
4.03495838287752484e+00
4.08846611177170249e+00
4.14435196195005773e+00
4.20261593341260653e+00
4.26325802615933291e+00
4.32627824019025109e+00
4.39167657550535040e+00
4.45945303210463262e+00
0.00000000000000000e+00
3.75315101070154622e+00
3.79001189060641952e+00
3.82925089179548150e+00
3.87086801426872773e+00
3.91486325802616086e+00
3.96123662306777602e+00
4.00998810939357764e+00
4.06111771700356439e+00
4.11462544589773405e+00
4.17051129607609727e+00
4.22877526753864608e+00
4.28941736028537601e+00
4.35243757431628975e+00
4.41783590963138906e+00
4.48561236623067838e+00
0.00000000000000000e+00
3.78406658739595914e+00
3.82092746730083155e+00
3.86016646848989220e+00
3.90178359096313665e+00
3.94577883472057023e+00
3.99215219976218672e+00
4.04090368608799810e+00
4.09203329369798041e+00
4.14554102259215007e+00
4.20142687277051152e+00
4.25969084423305411e+00
4.32033293697978671e+00
4.38335315101070133e+00
4.44875148632580064e+00
4.51652794292508286e+00
0.00000000000000000e+00
3.81973840665874098e+00
3.85659928656361783e+00
3.89583828775267449e+00
3.93745541022592294e+00
3.98145065398335340e+00
4.02782401902496989e+00
4.07657550535077018e+00
4.12770511296076315e+00
4.18121284185493192e+00
4.23709869203329337e+00
4.29536266349583862e+00
4.35600475624256678e+00
4.41902497027348584e+00
4.48442330558858426e+00
4.55219976218787181e+00
0.00000000000000000e+00
3.86016646848989575e+00
3.89702734839477127e+00
3.93626634958383059e+00
3.97788347205707327e+00
4.02187871581450640e+00
4.06825208085612378e+00
4.11700356718192584e+00
4.16813317479191614e+00
4.22164090368609024e+00
4.27752675386444814e+00
4.33579072532699072e+00
4.39643281807372244e+00
4.45945303210463351e+00
4.52485136741973637e+00
4.59262782401902125e+00
0.00000000000000000e+00
3.90535077288941812e+00
3.94221165279429453e+00
3.98145065398335385e+00
4.02306777645660052e+00
4.06706302021402788e+00
4.11343638525564526e+00
4.16218787158145176e+00
4.21331747919144028e+00
4.26682520808561261e+00
4.32271105826397584e+00
4.38097502972651665e+00
4.44161712247324214e+00
4.50463733650415588e+00
4.57003567181925874e+00
4.63781212841855339e+00
0.00000000000000000e+00
3.95529131985731697e+00
3.99215219976218982e+00
4.03139120095124692e+00
4.07300832342449404e+00
4.11700356718193028e+00
4.16337693222354677e+00
4.21212841854934972e+00
4.26325802615933469e+00
4.31676575505350701e+00
4.37265160523186491e+00
4.43091557669440750e+00
4.49155766944114099e+00
4.55457788347205472e+00
4.61997621878716203e+00
4.68775267538644247e+00
0.00000000000000000e+00
4.00998810939357941e+00
4.04684898929845449e+00
4.08608799048751248e+00
4.12770511296076048e+00
4.17170035671819228e+00
4.21807372175980788e+00
4.26682520808561350e+00
4.31795481569560469e+00
4.37146254458977523e+00
4.42734839476813580e+00
4.48561236623067661e+00
4.54625445897740654e+00
4.60927467300831850e+00
4.67467300832342669e+00
4.74244946492271247e+00
0.00000000000000000e+00
4.06944114149821434e+00
4.10630202140309386e+00
4.14554102259215362e+00
4.18715814506540251e+00
4.23115338882282899e+00
4.27752675386444903e+00
4.32627824019025375e+00
4.37740784780024139e+00
4.43091557669441372e+00
4.48680142687276806e+00
4.54506539833531509e+00
4.60570749108204680e+00
4.66872770511295787e+00
4.73412604042806340e+00
4.80190249702734473e+00
0.00000000000000000e+00
4.13365041617122486e+00
4.17051129607609905e+00
4.20975029726516148e+00
4.25136741973840682e+00
4.29536266349584039e+00
4.34173602853745599e+00
4.39048751486325806e+00
4.44161712247324392e+00
4.49512485136741891e+00
4.55101070154577858e+00
4.60927467300832827e+00
4.66991676575505199e+00
4.73293697978596750e+00
4.79833531510106948e+00
4.86611177170035791e+00
0.00000000000000000e+00
0.00000000000000000e+00
0.00000000000000000e+00
0.00000000000000000e+00
0.00000000000000000e+00
0.00000000000000000e+00
0.00000000000000000e+00
0.00000000000000000e+00
0.00000000000000000e+00
0.00000000000000000e+00
0.00000000000000000e+00
0.00000000000000000e+00
0.00000000000000000e+00
0.00000000000000000e+00
0.00000000000000000e+00
0.00000000000000000e+00
</DataArray>
</PointData>
</Piece>
</StructuredGrid>
</VTKFile>
