<?xml version="1.0"?>
<VTKFile type="StructuredGrid">
<StructuredGrid WholeExtent="14 29 0 15 0 0 ">
<Piece Extent="14 29 0 15 0 0 ">
<Points>
<DataArray type="Float64" Name="coordinate" NumberOfComponents="3" format="ascii">
0.00000000000000000e+00 0.00000000000000000e+00 0 
5.17241379310344862e-01 0.00000000000000000e+00 0 
5.51724137931034475e-01 0.00000000000000000e+00 0 
5.86206896551724088e-01 0.00000000000000000e+00 0 
6.20689655172413812e-01 0.00000000000000000e+00 0 
6.55172413793103425e-01 0.00000000000000000e+00 0 
6.89655172413793149e-01 0.00000000000000000e+00 0 
7.24137931034482762e-01 0.00000000000000000e+00 0 
7.58620689655172376e-01 0.00000000000000000e+00 0 
7.93103448275862100e-01 0.00000000000000000e+00 0 
8.27586206896551713e-01 0.00000000000000000e+00 0 
8.62068965517241326e-01 0.00000000000000000e+00 0 
8.96551724137931050e-01 0.00000000000000000e+00 0 
9.31034482758620663e-01 0.00000000000000000e+00 0 
9.65517241379310276e-01 0.00000000000000000e+00 0 
1.00000000000000000e+00 0.00000000000000000e+00 0 
0.00000000000000000e+00 0.00000000000000000e+00 0 
5.17241379310344862e-01 3.44827586206896547e-02 0 
5.51724137931034475e-01 3.44827586206896547e-02 0 
5.86206896551724088e-01 3.44827586206896547e-02 0 
6.20689655172413812e-01 3.44827586206896547e-02 0 
6.55172413793103425e-01 3.44827586206896547e-02 0 
6.89655172413793149e-01 3.44827586206896547e-02 0 
7.24137931034482762e-01 3.44827586206896547e-02 0 
7.58620689655172376e-01 3.44827586206896547e-02 0 
7.93103448275862100e-01 3.44827586206896547e-02 0 
8.27586206896551713e-01 3.44827586206896547e-02 0 
8.62068965517241326e-01 3.44827586206896547e-02 0 
8.96551724137931050e-01 3.44827586206896547e-02 0 
9.31034482758620663e-01 3.44827586206896547e-02 0 
9.65517241379310276e-01 3.44827586206896547e-02 0 
1.00000000000000000e+00 3.44827586206896547e-02 0 
0.00000000000000000e+00 0.00000000000000000e+00 0 
5.17241379310344862e-01 6.89655172413793094e-02 0 
5.51724137931034475e-01 6.89655172413793094e-02 0 
5.86206896551724088e-01 6.89655172413793094e-02 0 
6.20689655172413812e-01 6.89655172413793094e-02 0 
6.55172413793103425e-01 6.89655172413793094e-02 0 
6.89655172413793149e-01 6.89655172413793094e-02 0 
7.24137931034482762e-01 6.89655172413793094e-02 0 
7.58620689655172376e-01 6.89655172413793094e-02 0 
7.93103448275862100e-01 6.89655172413793094e-02 0 
8.27586206896551713e-01 6.89655172413793094e-02 0 
8.62068965517241326e-01 6.89655172413793094e-02 0 
8.96551724137931050e-01 6.89655172413793094e-02 0 
9.31034482758620663e-01 6.89655172413793094e-02 0 
9.65517241379310276e-01 6.89655172413793094e-02 0 
1.00000000000000000e+00 6.89655172413793094e-02 0 
0.00000000000000000e+00 0.00000000000000000e+00 0 
5.17241379310344862e-01 1.03448275862068964e-01 0 
5.51724137931034475e-01 1.03448275862068964e-01 0 
5.86206896551724088e-01 1.03448275862068964e-01 0 
6.20689655172413812e-01 1.03448275862068964e-01 0 
6.55172413793103425e-01 1.03448275862068964e-01 0 
6.89655172413793149e-01 1.03448275862068964e-01 0 
7.24137931034482762e-01 1.03448275862068964e-01 0 
7.58620689655172376e-01 1.03448275862068964e-01 0 
7.93103448275862100e-01 1.03448275862068964e-01 0 
8.27586206896551713e-01 1.03448275862068964e-01 0 
8.62068965517241326e-01 1.03448275862068964e-01 0 
8.96551724137931050e-01 1.03448275862068964e-01 0 
9.31034482758620663e-01 1.03448275862068964e-01 0 
9.65517241379310276e-01 1.03448275862068964e-01 0 
1.00000000000000000e+00 1.03448275862068964e-01 0 
0.00000000000000000e+00 0.00000000000000000e+00 0 
5.17241379310344862e-01 1.37931034482758619e-01 0 
5.51724137931034475e-01 1.37931034482758619e-01 0 
5.86206896551724088e-01 1.37931034482758619e-01 0 
6.20689655172413812e-01 1.37931034482758619e-01 0 
6.55172413793103425e-01 1.37931034482758619e-01 0 
6.89655172413793149e-01 1.37931034482758619e-01 0 
7.24137931034482762e-01 1.37931034482758619e-01 0 
7.58620689655172376e-01 1.37931034482758619e-01 0 
7.93103448275862100e-01 1.37931034482758619e-01 0 
8.27586206896551713e-01 1.37931034482758619e-01 0 
8.62068965517241326e-01 1.37931034482758619e-01 0 
8.96551724137931050e-01 1.37931034482758619e-01 0 
9.31034482758620663e-01 1.37931034482758619e-01 0 
9.65517241379310276e-01 1.37931034482758619e-01 0 
1.00000000000000000e+00 1.37931034482758619e-01 0 
0.00000000000000000e+00 0.00000000000000000e+00 0 
5.17241379310344862e-01 1.72413793103448287e-01 0 
5.51724137931034475e-01 1.72413793103448287e-01 0 
5.86206896551724088e-01 1.72413793103448287e-01 0 
6.20689655172413812e-01 1.72413793103448287e-01 0 
6.55172413793103425e-01 1.72413793103448287e-01 0 
6.89655172413793149e-01 1.72413793103448287e-01 0 
7.24137931034482762e-01 1.72413793103448287e-01 0 
7.58620689655172376e-01 1.72413793103448287e-01 0 
7.93103448275862100e-01 1.72413793103448287e-01 0 
8.27586206896551713e-01 1.72413793103448287e-01 0 
8.62068965517241326e-01 1.72413793103448287e-01 0 
8.96551724137931050e-01 1.72413793103448287e-01 0 
9.31034482758620663e-01 1.72413793103448287e-01 0 
9.65517241379310276e-01 1.72413793103448287e-01 0 
1.00000000000000000e+00 1.72413793103448287e-01 0 
0.00000000000000000e+00 0.00000000000000000e+00 0 
5.17241379310344862e-01 2.06896551724137928e-01 0 
5.51724137931034475e-01 2.06896551724137928e-01 0 
5.86206896551724088e-01 2.06896551724137928e-01 0 
6.20689655172413812e-01 2.06896551724137928e-01 0 
6.55172413793103425e-01 2.06896551724137928e-01 0 
6.89655172413793149e-01 2.06896551724137928e-01 0 
7.24137931034482762e-01 2.06896551724137928e-01 0 
7.58620689655172376e-01 2.06896551724137928e-01 0 
7.93103448275862100e-01 2.06896551724137928e-01 0 
8.27586206896551713e-01 2.06896551724137928e-01 0 
8.62068965517241326e-01 2.06896551724137928e-01 0 
8.96551724137931050e-01 2.06896551724137928e-01 0 
9.31034482758620663e-01 2.06896551724137928e-01 0 
9.65517241379310276e-01 2.06896551724137928e-01 0 
1.00000000000000000e+00 2.06896551724137928e-01 0 
0.00000000000000000e+00 0.00000000000000000e+00 0 
5.17241379310344862e-01 2.41379310344827569e-01 0 
5.51724137931034475e-01 2.41379310344827569e-01 0 
5.86206896551724088e-01 2.41379310344827569e-01 0 
6.20689655172413812e-01 2.41379310344827569e-01 0 
6.55172413793103425e-01 2.41379310344827569e-01 0 
6.89655172413793149e-01 2.41379310344827569e-01 0 
7.24137931034482762e-01 2.41379310344827569e-01 0 
7.58620689655172376e-01 2.41379310344827569e-01 0 
7.93103448275862100e-01 2.41379310344827569e-01 0 
8.27586206896551713e-01 2.41379310344827569e-01 0 
8.62068965517241326e-01 2.41379310344827569e-01 0 
8.96551724137931050e-01 2.41379310344827569e-01 0 
9.31034482758620663e-01 2.41379310344827569e-01 0 
9.65517241379310276e-01 2.41379310344827569e-01 0 
1.00000000000000000e+00 2.41379310344827569e-01 0 
0.00000000000000000e+00 0.00000000000000000e+00 0 
5.17241379310344862e-01 2.75862068965517238e-01 0 
5.51724137931034475e-01 2.75862068965517238e-01 0 
5.86206896551724088e-01 2.75862068965517238e-01 0 
6.20689655172413812e-01 2.75862068965517238e-01 0 
6.55172413793103425e-01 2.75862068965517238e-01 0 
6.89655172413793149e-01 2.75862068965517238e-01 0 
7.24137931034482762e-01 2.75862068965517238e-01 0 
7.58620689655172376e-01 2.75862068965517238e-01 0 
7.93103448275862100e-01 2.75862068965517238e-01 0 
8.27586206896551713e-01 2.75862068965517238e-01 0 
8.62068965517241326e-01 2.75862068965517238e-01 0 
8.96551724137931050e-01 2.75862068965517238e-01 0 
9.31034482758620663e-01 2.75862068965517238e-01 0 
9.65517241379310276e-01 2.75862068965517238e-01 0 
1.00000000000000000e+00 2.75862068965517238e-01 0 
0.00000000000000000e+00 0.00000000000000000e+00 0 
5.17241379310344862e-01 3.10344827586206906e-01 0 
5.51724137931034475e-01 3.10344827586206906e-01 0 
5.86206896551724088e-01 3.10344827586206906e-01 0 
6.20689655172413812e-01 3.10344827586206906e-01 0 
6.55172413793103425e-01 3.10344827586206906e-01 0 
6.89655172413793149e-01 3.10344827586206906e-01 0 
7.24137931034482762e-01 3.10344827586206906e-01 0 
7.58620689655172376e-01 3.10344827586206906e-01 0 
7.93103448275862100e-01 3.10344827586206906e-01 0 
8.27586206896551713e-01 3.10344827586206906e-01 0 
8.62068965517241326e-01 3.10344827586206906e-01 0 
8.96551724137931050e-01 3.10344827586206906e-01 0 
9.31034482758620663e-01 3.10344827586206906e-01 0 
9.65517241379310276e-01 3.10344827586206906e-01 0 
1.00000000000000000e+00 3.10344827586206906e-01 0 
0.00000000000000000e+00 0.00000000000000000e+00 0 
5.17241379310344862e-01 3.44827586206896575e-01 0 
5.51724137931034475e-01 3.44827586206896575e-01 0 
5.86206896551724088e-01 3.44827586206896575e-01 0 
6.20689655172413812e-01 3.44827586206896575e-01 0 
6.55172413793103425e-01 3.44827586206896575e-01 0 
6.89655172413793149e-01 3.44827586206896575e-01 0 
7.24137931034482762e-01 3.44827586206896575e-01 0 
7.58620689655172376e-01 3.44827586206896575e-01 0 
7.93103448275862100e-01 3.44827586206896575e-01 0 
8.27586206896551713e-01 3.44827586206896575e-01 0 
8.62068965517241326e-01 3.44827586206896575e-01 0 
8.96551724137931050e-01 3.44827586206896575e-01 0 
9.31034482758620663e-01 3.44827586206896575e-01 0 
9.65517241379310276e-01 3.44827586206896575e-01 0 
1.00000000000000000e+00 3.44827586206896575e-01 0 
0.00000000000000000e+00 0.00000000000000000e+00 0 
5.17241379310344862e-01 3.79310344827586188e-01 0 
5.51724137931034475e-01 3.79310344827586188e-01 0 
5.86206896551724088e-01 3.79310344827586188e-01 0 
6.20689655172413812e-01 3.79310344827586188e-01 0 
6.55172413793103425e-01 3.79310344827586188e-01 0 
6.89655172413793149e-01 3.79310344827586188e-01 0 
7.24137931034482762e-01 3.79310344827586188e-01 0 
7.58620689655172376e-01 3.79310344827586188e-01 0 
7.93103448275862100e-01 3.79310344827586188e-01 0 
8.27586206896551713e-01 3.79310344827586188e-01 0 
8.62068965517241326e-01 3.79310344827586188e-01 0 
8.96551724137931050e-01 3.79310344827586188e-01 0 
9.31034482758620663e-01 3.79310344827586188e-01 0 
9.65517241379310276e-01 3.79310344827586188e-01 0 
1.00000000000000000e+00 3.79310344827586188e-01 0 
0.00000000000000000e+00 0.00000000000000000e+00 0 
5.17241379310344862e-01 4.13793103448275856e-01 0 
5.51724137931034475e-01 4.13793103448275856e-01 0 
5.86206896551724088e-01 4.13793103448275856e-01 0 
6.20689655172413812e-01 4.13793103448275856e-01 0 
6.55172413793103425e-01 4.13793103448275856e-01 0 
6.89655172413793149e-01 4.13793103448275856e-01 0 
7.24137931034482762e-01 4.13793103448275856e-01 0 
7.58620689655172376e-01 4.13793103448275856e-01 0 
7.93103448275862100e-01 4.13793103448275856e-01 0 
8.27586206896551713e-01 4.13793103448275856e-01 0 
8.62068965517241326e-01 4.13793103448275856e-01 0 
8.96551724137931050e-01 4.13793103448275856e-01 0 
9.31034482758620663e-01 4.13793103448275856e-01 0 
9.65517241379310276e-01 4.13793103448275856e-01 0 
1.00000000000000000e+00 4.13793103448275856e-01 0 
0.00000000000000000e+00 0.00000000000000000e+00 0 
5.17241379310344862e-01 4.48275862068965525e-01 0 
5.51724137931034475e-01 4.48275862068965525e-01 0 
5.86206896551724088e-01 4.48275862068965525e-01 0 
6.20689655172413812e-01 4.48275862068965525e-01 0 
6.55172413793103425e-01 4.48275862068965525e-01 0 
6.89655172413793149e-01 4.48275862068965525e-01 0 
7.24137931034482762e-01 4.48275862068965525e-01 0 
7.58620689655172376e-01 4.48275862068965525e-01 0 
7.93103448275862100e-01 4.48275862068965525e-01 0 
8.27586206896551713e-01 4.48275862068965525e-01 0 
8.62068965517241326e-01 4.48275862068965525e-01 0 
8.96551724137931050e-01 4.48275862068965525e-01 0 
9.31034482758620663e-01 4.48275862068965525e-01 0 
9.65517241379310276e-01 4.48275862068965525e-01 0 
1.00000000000000000e+00 4.48275862068965525e-01 0 
0.00000000000000000e+00 0.00000000000000000e+00 0 
5.17241379310344862e-01 4.82758620689655138e-01 0 
5.51724137931034475e-01 4.82758620689655138e-01 0 
5.86206896551724088e-01 4.82758620689655138e-01 0 
6.20689655172413812e-01 4.82758620689655138e-01 0 
6.55172413793103425e-01 4.82758620689655138e-01 0 
6.89655172413793149e-01 4.82758620689655138e-01 0 
7.24137931034482762e-01 4.82758620689655138e-01 0 
7.58620689655172376e-01 4.82758620689655138e-01 0 
7.93103448275862100e-01 4.82758620689655138e-01 0 
8.27586206896551713e-01 4.82758620689655138e-01 0 
8.62068965517241326e-01 4.82758620689655138e-01 0 
8.96551724137931050e-01 4.82758620689655138e-01 0 
9.31034482758620663e-01 4.82758620689655138e-01 0 
9.65517241379310276e-01 4.82758620689655138e-01 0 
1.00000000000000000e+00 4.82758620689655138e-01 0 
0.00000000000000000e+00 0.00000000000000000e+00 0 
0.00000000000000000e+00 0.00000000000000000e+00 0 
0.00000000000000000e+00 0.00000000000000000e+00 0 
0.00000000000000000e+00 0.00000000000000000e+00 0 
0.00000000000000000e+00 0.00000000000000000e+00 0 
0.00000000000000000e+00 0.00000000000000000e+00 0 
0.00000000000000000e+00 0.00000000000000000e+00 0 
0.00000000000000000e+00 0.00000000000000000e+00 0 
0.00000000000000000e+00 0.00000000000000000e+00 0 
0.00000000000000000e+00 0.00000000000000000e+00 0 
0.00000000000000000e+00 0.00000000000000000e+00 0 
0.00000000000000000e+00 0.00000000000000000e+00 0 
0.00000000000000000e+00 0.00000000000000000e+00 0 
0.00000000000000000e+00 0.00000000000000000e+00 0 
0.00000000000000000e+00 0.00000000000000000e+00 0 
0.00000000000000000e+00 0.00000000000000000e+00 0 
</DataArray>
</Points>
<PointData>
<DataArray type="Float64" Name="heat" NumberOfComponents="1" format="ascii">
0.00000000000000000e+00
4.46753864447086890e+00
4.50439952437574220e+00
4.54363852556479930e+00
4.58525564803804553e+00
4.62925089179548088e+00
4.67562425683710181e+00
4.72437574316290032e+00
4.77550535077288441e+00
4.82901307966706117e+00
4.88489892984541818e+00
4.94316290130796432e+00
5.00380499405469692e+00
5.06682520808560888e+00
5.13222354340071085e+00
5.19999999999999751e+00
0.00000000000000000e+00
4.46991676575505359e+00
4.50677764565993133e+00
4.54601664684898843e+00
4.58763376932223288e+00
4.63162901307966646e+00
4.67800237812128383e+00
4.72675386444708678e+00
4.77788347205707620e+00
4.83139120095125030e+00
4.88727705112960820e+00
4.94554102259214723e+00
5.00618311533888605e+00
5.06920332936979623e+00
5.13460166468489732e+00
5.20237812128418220e+00
0.00000000000000000e+00
4.47705112960761298e+00
4.51391200951248539e+00
4.55315101070153982e+00
4.59476813317478960e+00
4.63876337693222229e+00
4.68513674197383878e+00
4.73388822829963996e+00
4.78501783590963292e+00
4.83852556480380436e+00
4.89441141498215870e+00
4.95267538644470751e+00
5.01331747919143478e+00
5.07633769322235118e+00
5.14173602853745759e+00
5.20951248513674336e+00
0.00000000000000000e+00
4.48894173602853730e+00
4.52580261593341326e+00
4.56504161712247392e+00
4.60665873959571925e+00
4.65065398335315372e+00
4.69702734839476932e+00
4.74577883472057582e+00
4.79690844233055458e+00
4.85041617122473134e+00
4.90630202140309013e+00
4.96456599286563272e+00
5.02520808561236354e+00
5.08822829964328349e+00
5.15362663495838103e+00
5.22140309155766502e+00
0.00000000000000000e+00
4.50558858501783099e+00
4.54244946492270696e+00
4.58168846611177027e+00
4.62330558858501295e+00
4.66730083234245274e+00
4.71367419738407367e+00
4.76242568370987218e+00
4.81355529131985627e+00
4.86706302021403037e+00
4.92294887039238915e+00
4.98121284185493529e+00
5.04185493460166700e+00
5.10487514863257896e+00
5.17027348394767738e+00
5.23804994054696316e+00
0.00000000000000000e+00
4.52699167657550383e+00
4.56385255648037980e+00
4.60309155766943956e+00
4.64470868014268934e+00
4.68870392390012469e+00
4.73507728894173141e+00
4.78382877526754058e+00
4.83495838287752466e+00
4.88846611177169965e+00
4.94435196195006377e+00
5.00261593341260014e+00
5.06325802615933185e+00
5.12627824019024736e+00
5.19167657550534845e+00
5.25945303210463599e+00
0.00000000000000000e+00
4.55315101070154871e+00
4.59001189060642201e+00
4.62925089179547822e+00
4.67086801426872178e+00
4.71486325802615358e+00
4.76123662306777806e+00
4.80998810939357924e+00
4.86111771700356421e+00
4.91462544589773920e+00
4.97051129607609887e+00
5.02877526753864412e+00
5.08941736028537495e+00
5.15243757431628957e+00
5.21783590963138888e+00
5.28561236623067199e+00
0.00000000000000000e+00
4.58406658739595674e+00
4.62092746730083181e+00
4.66016646848989247e+00
4.70178359096314225e+00
4.74577883472057138e+00
4.79215219976218609e+00
4.84090368608799260e+00
4.89203329369797579e+00
4.94554102259215345e+00
5.00142687277051312e+00
5.05969084423305304e+00
5.12033293697978742e+00
5.18335315101069760e+00
5.24875148632580046e+00
5.31652794292508979e+00
0.00000000000000000e+00
4.61973840665873858e+00
4.65659928656361721e+00
4.69583828775267609e+00
4.73745541022591876e+00
4.78145065398335056e+00
4.82782401902496972e+00
4.87657550535076645e+00
4.92770511296075941e+00
4.98121284185493529e+00
5.03709869203329408e+00
5.09536266349583844e+00
5.15600475624257015e+00
5.21902497027348389e+00
5.28442330558858320e+00
5.35219976218786897e+00
0.00000000000000000e+00
4.66016646848989602e+00
4.69702734839476665e+00
4.73626634958383175e+00
4.77788347205707531e+00
4.82187871581450445e+00
4.86825208085612360e+00
4.91700356718192566e+00
4.96813317479191596e+00
5.02164090368609006e+00
5.07752675386445063e+00
5.13579072532699321e+00
5.19643281807372404e+00
5.25945303210463688e+00
5.32485136741973530e+00
5.39262782401902019e+00
0.00000000000000000e+00
4.70535077288941839e+00
4.74221165279429346e+00
4.78145065398335323e+00
4.82306777645659945e+00
4.86706302021402948e+00
4.91343638525564774e+00
4.96218787158144714e+00
5.01331747919143833e+00
5.06682520808561065e+00
5.12271105826397299e+00
5.18097502972651558e+00
5.24161712247324729e+00
5.30463733650415659e+00
5.37003567181926211e+00
5.43781212841855055e+00
0.00000000000000000e+00
4.75529131985731546e+00
4.79215219976218698e+00
4.83139120095124763e+00
4.87300832342449386e+00
4.91700356718193099e+00
4.96337693222354126e+00
5.01212841854934954e+00
5.06325802615933629e+00
5.11676575505351128e+00
5.17265160523186562e+00
5.23091557669441087e+00
5.29155766944114170e+00
5.35457788347205366e+00
5.41997621878715830e+00
5.48775267538643607e+00
0.00000000000000000e+00
4.80998810939357835e+00
4.84684898929845520e+00
4.88608799048751319e+00
4.92770511296076030e+00
4.97170035671818944e+00
5.01807372175981570e+00
5.06682520808561243e+00
5.11795481569560362e+00
5.17146254458977506e+00
5.22734839476813651e+00
5.28561236623067554e+00
5.34625445897740903e+00
5.40927467300832099e+00
5.47467300832342030e+00
5.54244946492270696e+00
0.00000000000000000e+00
4.86944114149821683e+00
4.90630202140309102e+00
4.94554102259215433e+00
4.98715814506540323e+00
5.03115338882282792e+00
5.07752675386444974e+00
5.12627824019025002e+00
5.17740784780023766e+00
5.23091557669441087e+00
5.28680142687276966e+00
5.34506539833531313e+00
5.40570749108204218e+00
5.46872770511296125e+00
5.53412604042806322e+00
5.60190249702734722e+00
0.00000000000000000e+00
4.93365041617122646e+00
4.97051129607610154e+00
5.00975029726516574e+00
5.05136741973840930e+00
5.09536266349583844e+00
5.14173602853745226e+00
5.19048751486325521e+00
5.24161712247325262e+00
5.29512485136742050e+00
5.35101070154577485e+00
5.40927467300832276e+00
5.46991676575504915e+00
5.53293697978596821e+00
5.59833531510107019e+00
5.66611177170035241e+00
0.00000000000000000e+00
0.00000000000000000e+00
0.00000000000000000e+00
0.00000000000000000e+00
0.00000000000000000e+00
0.00000000000000000e+00
0.00000000000000000e+00
0.00000000000000000e+00
0.00000000000000000e+00
0.00000000000000000e+00
0.00000000000000000e+00
0.00000000000000000e+00
0.00000000000000000e+00
0.00000000000000000e+00
0.00000000000000000e+00
0.00000000000000000e+00
</DataArray>
</PointData>
</Piece>
</StructuredGrid>
</VTKFile>
