<?xml version="1.0"?>
<VTKFile type="StructuredGrid">
<StructuredGrid WholeExtent="0 15 0 15 0 0 ">
<Piece Extent="0 15 0 15 0 0 ">
<Points>
<DataArray type="Float64" Name="coordinate" NumberOfComponents="3" format="ascii">
0.00000000000000000e+00 0.00000000000000000e+00 0 
3.44827586206896547e-02 0.00000000000000000e+00 0 
6.89655172413793094e-02 0.00000000000000000e+00 0 
1.03448275862068964e-01 0.00000000000000000e+00 0 
1.37931034482758619e-01 0.00000000000000000e+00 0 
1.72413793103448287e-01 0.00000000000000000e+00 0 
2.06896551724137928e-01 0.00000000000000000e+00 0 
2.41379310344827569e-01 0.00000000000000000e+00 0 
2.75862068965517238e-01 0.00000000000000000e+00 0 
3.10344827586206906e-01 0.00000000000000000e+00 0 
3.44827586206896575e-01 0.00000000000000000e+00 0 
3.79310344827586188e-01 0.00000000000000000e+00 0 
4.13793103448275856e-01 0.00000000000000000e+00 0 
4.48275862068965525e-01 0.00000000000000000e+00 0 
4.82758620689655138e-01 0.00000000000000000e+00 0 
0.00000000000000000e+00 0.00000000000000000e+00 0 
0.00000000000000000e+00 3.44827586206896547e-02 0 
3.44827586206896547e-02 3.44827586206896547e-02 0 
6.89655172413793094e-02 3.44827586206896547e-02 0 
1.03448275862068964e-01 3.44827586206896547e-02 0 
1.37931034482758619e-01 3.44827586206896547e-02 0 
1.72413793103448287e-01 3.44827586206896547e-02 0 
2.06896551724137928e-01 3.44827586206896547e-02 0 
2.41379310344827569e-01 3.44827586206896547e-02 0 
2.75862068965517238e-01 3.44827586206896547e-02 0 
3.10344827586206906e-01 3.44827586206896547e-02 0 
3.44827586206896575e-01 3.44827586206896547e-02 0 
3.79310344827586188e-01 3.44827586206896547e-02 0 
4.13793103448275856e-01 3.44827586206896547e-02 0 
4.48275862068965525e-01 3.44827586206896547e-02 0 
4.82758620689655138e-01 3.44827586206896547e-02 0 
0.00000000000000000e+00 0.00000000000000000e+00 0 
0.00000000000000000e+00 6.89655172413793094e-02 0 
3.44827586206896547e-02 6.89655172413793094e-02 0 
6.89655172413793094e-02 6.89655172413793094e-02 0 
1.03448275862068964e-01 6.89655172413793094e-02 0 
1.37931034482758619e-01 6.89655172413793094e-02 0 
1.72413793103448287e-01 6.89655172413793094e-02 0 
2.06896551724137928e-01 6.89655172413793094e-02 0 
2.41379310344827569e-01 6.89655172413793094e-02 0 
2.75862068965517238e-01 6.89655172413793094e-02 0 
3.10344827586206906e-01 6.89655172413793094e-02 0 
3.44827586206896575e-01 6.89655172413793094e-02 0 
3.79310344827586188e-01 6.89655172413793094e-02 0 
4.13793103448275856e-01 6.89655172413793094e-02 0 
4.48275862068965525e-01 6.89655172413793094e-02 0 
4.82758620689655138e-01 6.89655172413793094e-02 0 
0.00000000000000000e+00 0.00000000000000000e+00 0 
0.00000000000000000e+00 1.03448275862068964e-01 0 
3.44827586206896547e-02 1.03448275862068964e-01 0 
6.89655172413793094e-02 1.03448275862068964e-01 0 
1.03448275862068964e-01 1.03448275862068964e-01 0 
1.37931034482758619e-01 1.03448275862068964e-01 0 
1.72413793103448287e-01 1.03448275862068964e-01 0 
2.06896551724137928e-01 1.03448275862068964e-01 0 
2.41379310344827569e-01 1.03448275862068964e-01 0 
2.75862068965517238e-01 1.03448275862068964e-01 0 
3.10344827586206906e-01 1.03448275862068964e-01 0 
3.44827586206896575e-01 1.03448275862068964e-01 0 
3.79310344827586188e-01 1.03448275862068964e-01 0 
4.13793103448275856e-01 1.03448275862068964e-01 0 
4.48275862068965525e-01 1.03448275862068964e-01 0 
4.82758620689655138e-01 1.03448275862068964e-01 0 
0.00000000000000000e+00 0.00000000000000000e+00 0 
0.00000000000000000e+00 1.37931034482758619e-01 0 
3.44827586206896547e-02 1.37931034482758619e-01 0 
6.89655172413793094e-02 1.37931034482758619e-01 0 
1.03448275862068964e-01 1.37931034482758619e-01 0 
1.37931034482758619e-01 1.37931034482758619e-01 0 
1.72413793103448287e-01 1.37931034482758619e-01 0 
2.06896551724137928e-01 1.37931034482758619e-01 0 
2.41379310344827569e-01 1.37931034482758619e-01 0 
2.75862068965517238e-01 1.37931034482758619e-01 0 
3.10344827586206906e-01 1.37931034482758619e-01 0 
3.44827586206896575e-01 1.37931034482758619e-01 0 
3.79310344827586188e-01 1.37931034482758619e-01 0 
4.13793103448275856e-01 1.37931034482758619e-01 0 
4.48275862068965525e-01 1.37931034482758619e-01 0 
4.82758620689655138e-01 1.37931034482758619e-01 0 
0.00000000000000000e+00 0.00000000000000000e+00 0 
0.00000000000000000e+00 1.72413793103448287e-01 0 
3.44827586206896547e-02 1.72413793103448287e-01 0 
6.89655172413793094e-02 1.72413793103448287e-01 0 
1.03448275862068964e-01 1.72413793103448287e-01 0 
1.37931034482758619e-01 1.72413793103448287e-01 0 
1.72413793103448287e-01 1.72413793103448287e-01 0 
2.06896551724137928e-01 1.72413793103448287e-01 0 
2.41379310344827569e-01 1.72413793103448287e-01 0 
2.75862068965517238e-01 1.72413793103448287e-01 0 
3.10344827586206906e-01 1.72413793103448287e-01 0 
3.44827586206896575e-01 1.72413793103448287e-01 0 
3.79310344827586188e-01 1.72413793103448287e-01 0 
4.13793103448275856e-01 1.72413793103448287e-01 0 
4.48275862068965525e-01 1.72413793103448287e-01 0 
4.82758620689655138e-01 1.72413793103448287e-01 0 
0.00000000000000000e+00 0.00000000000000000e+00 0 
0.00000000000000000e+00 2.06896551724137928e-01 0 
3.44827586206896547e-02 2.06896551724137928e-01 0 
6.89655172413793094e-02 2.06896551724137928e-01 0 
1.03448275862068964e-01 2.06896551724137928e-01 0 
1.37931034482758619e-01 2.06896551724137928e-01 0 
1.72413793103448287e-01 2.06896551724137928e-01 0 
2.06896551724137928e-01 2.06896551724137928e-01 0 
2.41379310344827569e-01 2.06896551724137928e-01 0 
2.75862068965517238e-01 2.06896551724137928e-01 0 
3.10344827586206906e-01 2.06896551724137928e-01 0 
3.44827586206896575e-01 2.06896551724137928e-01 0 
3.79310344827586188e-01 2.06896551724137928e-01 0 
4.13793103448275856e-01 2.06896551724137928e-01 0 
4.48275862068965525e-01 2.06896551724137928e-01 0 
4.82758620689655138e-01 2.06896551724137928e-01 0 
0.00000000000000000e+00 0.00000000000000000e+00 0 
0.00000000000000000e+00 2.41379310344827569e-01 0 
3.44827586206896547e-02 2.41379310344827569e-01 0 
6.89655172413793094e-02 2.41379310344827569e-01 0 
1.03448275862068964e-01 2.41379310344827569e-01 0 
1.37931034482758619e-01 2.41379310344827569e-01 0 
1.72413793103448287e-01 2.41379310344827569e-01 0 
2.06896551724137928e-01 2.41379310344827569e-01 0 
2.41379310344827569e-01 2.41379310344827569e-01 0 
2.75862068965517238e-01 2.41379310344827569e-01 0 
3.10344827586206906e-01 2.41379310344827569e-01 0 
3.44827586206896575e-01 2.41379310344827569e-01 0 
3.79310344827586188e-01 2.41379310344827569e-01 0 
4.13793103448275856e-01 2.41379310344827569e-01 0 
4.48275862068965525e-01 2.41379310344827569e-01 0 
4.82758620689655138e-01 2.41379310344827569e-01 0 
0.00000000000000000e+00 0.00000000000000000e+00 0 
0.00000000000000000e+00 2.75862068965517238e-01 0 
3.44827586206896547e-02 2.75862068965517238e-01 0 
6.89655172413793094e-02 2.75862068965517238e-01 0 
1.03448275862068964e-01 2.75862068965517238e-01 0 
1.37931034482758619e-01 2.75862068965517238e-01 0 
1.72413793103448287e-01 2.75862068965517238e-01 0 
2.06896551724137928e-01 2.75862068965517238e-01 0 
2.41379310344827569e-01 2.75862068965517238e-01 0 
2.75862068965517238e-01 2.75862068965517238e-01 0 
3.10344827586206906e-01 2.75862068965517238e-01 0 
3.44827586206896575e-01 2.75862068965517238e-01 0 
3.79310344827586188e-01 2.75862068965517238e-01 0 
4.13793103448275856e-01 2.75862068965517238e-01 0 
4.48275862068965525e-01 2.75862068965517238e-01 0 
4.82758620689655138e-01 2.75862068965517238e-01 0 
0.00000000000000000e+00 0.00000000000000000e+00 0 
0.00000000000000000e+00 3.10344827586206906e-01 0 
3.44827586206896547e-02 3.10344827586206906e-01 0 
6.89655172413793094e-02 3.10344827586206906e-01 0 
1.03448275862068964e-01 3.10344827586206906e-01 0 
1.37931034482758619e-01 3.10344827586206906e-01 0 
1.72413793103448287e-01 3.10344827586206906e-01 0 
2.06896551724137928e-01 3.10344827586206906e-01 0 
2.41379310344827569e-01 3.10344827586206906e-01 0 
2.75862068965517238e-01 3.10344827586206906e-01 0 
3.10344827586206906e-01 3.10344827586206906e-01 0 
3.44827586206896575e-01 3.10344827586206906e-01 0 
3.79310344827586188e-01 3.10344827586206906e-01 0 
4.13793103448275856e-01 3.10344827586206906e-01 0 
4.48275862068965525e-01 3.10344827586206906e-01 0 
4.82758620689655138e-01 3.10344827586206906e-01 0 
0.00000000000000000e+00 0.00000000000000000e+00 0 
0.00000000000000000e+00 3.44827586206896575e-01 0 
3.44827586206896547e-02 3.44827586206896575e-01 0 
6.89655172413793094e-02 3.44827586206896575e-01 0 
1.03448275862068964e-01 3.44827586206896575e-01 0 
1.37931034482758619e-01 3.44827586206896575e-01 0 
1.72413793103448287e-01 3.44827586206896575e-01 0 
2.06896551724137928e-01 3.44827586206896575e-01 0 
2.41379310344827569e-01 3.44827586206896575e-01 0 
2.75862068965517238e-01 3.44827586206896575e-01 0 
3.10344827586206906e-01 3.44827586206896575e-01 0 
3.44827586206896575e-01 3.44827586206896575e-01 0 
3.79310344827586188e-01 3.44827586206896575e-01 0 
4.13793103448275856e-01 3.44827586206896575e-01 0 
4.48275862068965525e-01 3.44827586206896575e-01 0 
4.82758620689655138e-01 3.44827586206896575e-01 0 
0.00000000000000000e+00 0.00000000000000000e+00 0 
0.00000000000000000e+00 3.79310344827586188e-01 0 
3.44827586206896547e-02 3.79310344827586188e-01 0 
6.89655172413793094e-02 3.79310344827586188e-01 0 
1.03448275862068964e-01 3.79310344827586188e-01 0 
1.37931034482758619e-01 3.79310344827586188e-01 0 
1.72413793103448287e-01 3.79310344827586188e-01 0 
2.06896551724137928e-01 3.79310344827586188e-01 0 
2.41379310344827569e-01 3.79310344827586188e-01 0 
2.75862068965517238e-01 3.79310344827586188e-01 0 
3.10344827586206906e-01 3.79310344827586188e-01 0 
3.44827586206896575e-01 3.79310344827586188e-01 0 
3.79310344827586188e-01 3.79310344827586188e-01 0 
4.13793103448275856e-01 3.79310344827586188e-01 0 
4.48275862068965525e-01 3.79310344827586188e-01 0 
4.82758620689655138e-01 3.79310344827586188e-01 0 
0.00000000000000000e+00 0.00000000000000000e+00 0 
0.00000000000000000e+00 4.13793103448275856e-01 0 
3.44827586206896547e-02 4.13793103448275856e-01 0 
6.89655172413793094e-02 4.13793103448275856e-01 0 
1.03448275862068964e-01 4.13793103448275856e-01 0 
1.37931034482758619e-01 4.13793103448275856e-01 0 
1.72413793103448287e-01 4.13793103448275856e-01 0 
2.06896551724137928e-01 4.13793103448275856e-01 0 
2.41379310344827569e-01 4.13793103448275856e-01 0 
2.75862068965517238e-01 4.13793103448275856e-01 0 
3.10344827586206906e-01 4.13793103448275856e-01 0 
3.44827586206896575e-01 4.13793103448275856e-01 0 
3.79310344827586188e-01 4.13793103448275856e-01 0 
4.13793103448275856e-01 4.13793103448275856e-01 0 
4.48275862068965525e-01 4.13793103448275856e-01 0 
4.82758620689655138e-01 4.13793103448275856e-01 0 
0.00000000000000000e+00 0.00000000000000000e+00 0 
0.00000000000000000e+00 4.48275862068965525e-01 0 
3.44827586206896547e-02 4.48275862068965525e-01 0 
6.89655172413793094e-02 4.48275862068965525e-01 0 
1.03448275862068964e-01 4.48275862068965525e-01 0 
1.37931034482758619e-01 4.48275862068965525e-01 0 
1.72413793103448287e-01 4.48275862068965525e-01 0 
2.06896551724137928e-01 4.48275862068965525e-01 0 
2.41379310344827569e-01 4.48275862068965525e-01 0 
2.75862068965517238e-01 4.48275862068965525e-01 0 
3.10344827586206906e-01 4.48275862068965525e-01 0 
3.44827586206896575e-01 4.48275862068965525e-01 0 
3.79310344827586188e-01 4.48275862068965525e-01 0 
4.13793103448275856e-01 4.48275862068965525e-01 0 
4.48275862068965525e-01 4.48275862068965525e-01 0 
4.82758620689655138e-01 4.48275862068965525e-01 0 
0.00000000000000000e+00 0.00000000000000000e+00 0 
0.00000000000000000e+00 4.82758620689655138e-01 0 
3.44827586206896547e-02 4.82758620689655138e-01 0 
6.89655172413793094e-02 4.82758620689655138e-01 0 
1.03448275862068964e-01 4.82758620689655138e-01 0 
1.37931034482758619e-01 4.82758620689655138e-01 0 
1.72413793103448287e-01 4.82758620689655138e-01 0 
2.06896551724137928e-01 4.82758620689655138e-01 0 
2.41379310344827569e-01 4.82758620689655138e-01 0 
2.75862068965517238e-01 4.82758620689655138e-01 0 
3.10344827586206906e-01 4.82758620689655138e-01 0 
3.44827586206896575e-01 4.82758620689655138e-01 0 
3.79310344827586188e-01 4.82758620689655138e-01 0 
4.13793103448275856e-01 4.82758620689655138e-01 0 
4.48275862068965525e-01 4.82758620689655138e-01 0 
4.82758620689655138e-01 4.82758620689655138e-01 0 
0.00000000000000000e+00 0.00000000000000000e+00 0 
0.00000000000000000e+00 0.00000000000000000e+00 0 
0.00000000000000000e+00 0.00000000000000000e+00 0 
0.00000000000000000e+00 0.00000000000000000e+00 0 
0.00000000000000000e+00 0.00000000000000000e+00 0 
0.00000000000000000e+00 0.00000000000000000e+00 0 
0.00000000000000000e+00 0.00000000000000000e+00 0 
0.00000000000000000e+00 0.00000000000000000e+00 0 
0.00000000000000000e+00 0.00000000000000000e+00 0 
0.00000000000000000e+00 0.00000000000000000e+00 0 
0.00000000000000000e+00 0.00000000000000000e+00 0 
0.00000000000000000e+00 0.00000000000000000e+00 0 
0.00000000000000000e+00 0.00000000000000000e+00 0 
0.00000000000000000e+00 0.00000000000000000e+00 0 
0.00000000000000000e+00 0.00000000000000000e+00 0 
0.00000000000000000e+00 0.00000000000000000e+00 0 
0.00000000000000000e+00 0.00000000000000000e+00 0 
</DataArray>
</Points>
<PointData>
<DataArray type="Float64" Name="heat" NumberOfComponents="1" format="ascii">
3.79999999999999849e+00
3.80118906064208861e+00
3.80475624256836920e+00
3.81070154577883313e+00
3.81902497027348087e+00
3.82972651605231595e+00
3.84280618311533662e+00
3.85826397146254285e+00
3.87609988109393200e+00
3.89631391200951249e+00
3.91890606420927368e+00
3.94387633769322044e+00
3.97122473246135144e+00
4.00095124851366446e+00
4.03305588585017460e+00
0.00000000000000000e+00
3.80237812128418318e+00
3.80356718192627818e+00
3.80713436385255299e+00
3.81307966706301915e+00
3.82140309155766822e+00
3.83210463733650197e+00
3.84518430439952486e+00
3.86064209274672887e+00
3.87847800237812246e+00
3.89869203329370029e+00
3.92128418549346325e+00
3.94625445897740867e+00
3.97360285374554367e+00
4.00332936979786158e+00
4.03543400713436551e+00
0.00000000000000000e+00
3.80951248513674168e+00
3.81070154577883402e+00
3.81426872770511194e+00
3.82021403091557543e+00
3.82853745541022716e+00
3.83923900118905959e+00
3.85231866825208158e+00
3.86777645659928870e+00
3.88561236623067785e+00
3.90582639714625479e+00
3.92841854934601642e+00
3.95338882282996407e+00
3.98073721759809329e+00
4.01046373365041475e+00
4.04256837098691868e+00
0.00000000000000000e+00
3.82140309155766689e+00
3.82259215219975967e+00
3.82615933412604070e+00
3.83210463733650331e+00
3.84042806183115326e+00
3.85112960760998835e+00
3.86420927467300945e+00
3.87966706302021613e+00
3.89750297265160484e+00
3.91771700356718666e+00
3.94030915576694740e+00
3.96527942925089505e+00
3.99262782401902427e+00
4.02235434007134529e+00
4.05445897740784655e+00
0.00000000000000000e+00
3.83804994054696458e+00
3.83923900118906136e+00
3.84280618311533972e+00
3.84875148632580277e+00
3.85707491082045095e+00
3.86777645659928737e+00
3.88085612366230848e+00
3.89631391200951338e+00
3.91414982164090475e+00
3.93436385255648347e+00
3.95695600475624421e+00
3.98192627824019008e+00
4.00927467300832330e+00
4.03900118906063543e+00
4.07110582639714380e+00
0.00000000000000000e+00
3.85945303210463431e+00
3.86064209274673065e+00
3.86420927467300945e+00
3.87015457788347428e+00
3.87847800237812423e+00
3.88917954815695888e+00
3.90225921521997776e+00
3.91771700356718489e+00
3.93555291319857359e+00
3.95576694411415231e+00
3.97835909631391260e+00
4.00332936979785980e+00
4.03067776456599081e+00
4.06040428061831538e+00
4.09250891795481841e+00
0.00000000000000000e+00
3.88561236623067519e+00
3.88680142687276886e+00
3.89036860879904989e+00
3.89631391200951427e+00
3.90463733650416378e+00
3.91533888228299798e+00
3.92841854934601642e+00
3.94387633769322443e+00
3.96171224732461402e+00
3.98192627824019052e+00
4.00451843043995659e+00
4.02948870392390290e+00
4.05683709869203302e+00
4.08656361474435581e+00
4.11866825208085707e+00
0.00000000000000000e+00
3.91652794292508633e+00
3.91771700356718178e+00
3.92128418549345925e+00
3.92722948870392585e+00
3.93555291319857492e+00
3.94625445897740912e+00
3.95933412604042845e+00
3.97479191438763335e+00
3.99262782401902605e+00
4.01284185493460210e+00
4.03543400713436462e+00
4.06040428061831093e+00
4.08775267538644638e+00
4.11747919143876739e+00
4.14958382877526777e+00
0.00000000000000000e+00
3.95219976218786995e+00
3.95338882282996451e+00
3.95695600475624021e+00
3.96290130796670548e+00
3.97122473246135854e+00
3.98192627824019052e+00
3.99500594530320852e+00
4.01046373365041475e+00
4.02829964328180967e+00
4.04851367419738395e+00
4.07110582639714202e+00
4.09607609988109367e+00
4.12342449464923000e+00
4.15315101070154835e+00
4.18525564803805850e+00
0.00000000000000000e+00
3.99262782401902161e+00
3.99381688466111662e+00
3.99738406658739764e+00
4.00332936979785980e+00
4.01165279429250621e+00
4.02235434007134618e+00
4.03543400713436196e+00
4.05089179548157130e+00
4.06872770511295467e+00
4.08894173602853694e+00
4.11153388822830124e+00
4.13650416171224933e+00
4.16385255648037766e+00
4.19357907253269779e+00
4.22568370986920794e+00
0.00000000000000000e+00
4.03781212841855197e+00
4.03900118906064343e+00
4.04256837098691513e+00
4.04851367419738306e+00
4.05683709869203657e+00
4.06753864447087121e+00
4.08061831153389232e+00
4.09607609988109278e+00
4.11391200951248592e+00
4.13412604042806553e+00
4.15671819262782627e+00
4.18168846611177880e+00
4.20903686087990447e+00
4.23876337693222460e+00
4.27086801426872853e+00
0.00000000000000000e+00
4.08775267538644194e+00
4.08894173602853872e+00
4.09250891795481575e+00
4.09845422116527480e+00
4.10677764565993364e+00
4.11747919143876384e+00
4.13055885850178939e+00
4.14601664684898719e+00
4.16385255648038299e+00
4.18406658739595905e+00
4.20665873959571801e+00
4.23162901307966699e+00
4.25897740784779977e+00
4.28870392390012167e+00
4.32080856123662649e+00
0.00000000000000000e+00
4.14244946492270660e+00
4.14363852556479895e+00
4.14720570749107775e+00
4.15315101070154746e+00
4.16147443519620008e+00
4.17217598097502940e+00
4.18525564803804873e+00
4.20071343638525541e+00
4.21854934601664944e+00
4.23876337693222904e+00
4.26135552913198712e+00
4.28632580261593343e+00
4.31367419738406443e+00
4.34340071343638545e+00
4.37550535077289116e+00
0.00000000000000000e+00
4.20190249702733709e+00
4.20309155766943476e+00
4.20665873959571712e+00
4.21260404280618328e+00
4.22092746730083057e+00
4.23162901307967143e+00
4.24470868014268721e+00
4.26016646848989211e+00
4.27800237812128792e+00
4.29821640903686930e+00
4.32080856123663093e+00
4.34577883472057280e+00
4.37312722948870558e+00
4.40285374554102482e+00
4.43495838287752964e+00
0.00000000000000000e+00
4.26611177170035294e+00
4.26730083234244795e+00
4.27086801426872498e+00
4.27681331747919202e+00
4.28513674197384020e+00
4.29583828775267484e+00
4.30891795481569595e+00
4.32437574316290707e+00
4.34221165279429933e+00
4.36242568370987183e+00
4.38501783590963790e+00
4.40998810939358243e+00
4.43733650416171344e+00
4.46706302021403534e+00
4.49916765755053749e+00
0.00000000000000000e+00
0.00000000000000000e+00
0.00000000000000000e+00
0.00000000000000000e+00
0.00000000000000000e+00
0.00000000000000000e+00
0.00000000000000000e+00
0.00000000000000000e+00
0.00000000000000000e+00
0.00000000000000000e+00
0.00000000000000000e+00
0.00000000000000000e+00
0.00000000000000000e+00
0.00000000000000000e+00
0.00000000000000000e+00
0.00000000000000000e+00
0.00000000000000000e+00
</DataArray>
</PointData>
</Piece>
</StructuredGrid>
</VTKFile>
