<?xml version="1.0"?>
<VTKFile type="StructuredGrid">
<StructuredGrid WholeExtent="0 15 0 15 0 0 ">
<Piece Extent="0 15 0 15 0 0 ">
<Points>
<DataArray type="Float64" Name="coordinate" NumberOfComponents="3" format="ascii">
0.00000000000000000e+00 0.00000000000000000e+00 0 
3.44827586206896547e-02 0.00000000000000000e+00 0 
6.89655172413793094e-02 0.00000000000000000e+00 0 
1.03448275862068964e-01 0.00000000000000000e+00 0 
1.37931034482758619e-01 0.00000000000000000e+00 0 
1.72413793103448287e-01 0.00000000000000000e+00 0 
2.06896551724137928e-01 0.00000000000000000e+00 0 
2.41379310344827569e-01 0.00000000000000000e+00 0 
2.75862068965517238e-01 0.00000000000000000e+00 0 
3.10344827586206906e-01 0.00000000000000000e+00 0 
3.44827586206896575e-01 0.00000000000000000e+00 0 
3.79310344827586188e-01 0.00000000000000000e+00 0 
4.13793103448275856e-01 0.00000000000000000e+00 0 
4.48275862068965525e-01 0.00000000000000000e+00 0 
4.82758620689655138e-01 0.00000000000000000e+00 0 
0.00000000000000000e+00 0.00000000000000000e+00 0 
0.00000000000000000e+00 3.44827586206896547e-02 0 
3.44827586206896547e-02 3.44827586206896547e-02 0 
6.89655172413793094e-02 3.44827586206896547e-02 0 
1.03448275862068964e-01 3.44827586206896547e-02 0 
1.37931034482758619e-01 3.44827586206896547e-02 0 
1.72413793103448287e-01 3.44827586206896547e-02 0 
2.06896551724137928e-01 3.44827586206896547e-02 0 
2.41379310344827569e-01 3.44827586206896547e-02 0 
2.75862068965517238e-01 3.44827586206896547e-02 0 
3.10344827586206906e-01 3.44827586206896547e-02 0 
3.44827586206896575e-01 3.44827586206896547e-02 0 
3.79310344827586188e-01 3.44827586206896547e-02 0 
4.13793103448275856e-01 3.44827586206896547e-02 0 
4.48275862068965525e-01 3.44827586206896547e-02 0 
4.82758620689655138e-01 3.44827586206896547e-02 0 
0.00000000000000000e+00 0.00000000000000000e+00 0 
0.00000000000000000e+00 6.89655172413793094e-02 0 
3.44827586206896547e-02 6.89655172413793094e-02 0 
6.89655172413793094e-02 6.89655172413793094e-02 0 
1.03448275862068964e-01 6.89655172413793094e-02 0 
1.37931034482758619e-01 6.89655172413793094e-02 0 
1.72413793103448287e-01 6.89655172413793094e-02 0 
2.06896551724137928e-01 6.89655172413793094e-02 0 
2.41379310344827569e-01 6.89655172413793094e-02 0 
2.75862068965517238e-01 6.89655172413793094e-02 0 
3.10344827586206906e-01 6.89655172413793094e-02 0 
3.44827586206896575e-01 6.89655172413793094e-02 0 
3.79310344827586188e-01 6.89655172413793094e-02 0 
4.13793103448275856e-01 6.89655172413793094e-02 0 
4.48275862068965525e-01 6.89655172413793094e-02 0 
4.82758620689655138e-01 6.89655172413793094e-02 0 
0.00000000000000000e+00 0.00000000000000000e+00 0 
0.00000000000000000e+00 1.03448275862068964e-01 0 
3.44827586206896547e-02 1.03448275862068964e-01 0 
6.89655172413793094e-02 1.03448275862068964e-01 0 
1.03448275862068964e-01 1.03448275862068964e-01 0 
1.37931034482758619e-01 1.03448275862068964e-01 0 
1.72413793103448287e-01 1.03448275862068964e-01 0 
2.06896551724137928e-01 1.03448275862068964e-01 0 
2.41379310344827569e-01 1.03448275862068964e-01 0 
2.75862068965517238e-01 1.03448275862068964e-01 0 
3.10344827586206906e-01 1.03448275862068964e-01 0 
3.44827586206896575e-01 1.03448275862068964e-01 0 
3.79310344827586188e-01 1.03448275862068964e-01 0 
4.13793103448275856e-01 1.03448275862068964e-01 0 
4.48275862068965525e-01 1.03448275862068964e-01 0 
4.82758620689655138e-01 1.03448275862068964e-01 0 
0.00000000000000000e+00 0.00000000000000000e+00 0 
0.00000000000000000e+00 1.37931034482758619e-01 0 
3.44827586206896547e-02 1.37931034482758619e-01 0 
6.89655172413793094e-02 1.37931034482758619e-01 0 
1.03448275862068964e-01 1.37931034482758619e-01 0 
1.37931034482758619e-01 1.37931034482758619e-01 0 
1.72413793103448287e-01 1.37931034482758619e-01 0 
2.06896551724137928e-01 1.37931034482758619e-01 0 
2.41379310344827569e-01 1.37931034482758619e-01 0 
2.75862068965517238e-01 1.37931034482758619e-01 0 
3.10344827586206906e-01 1.37931034482758619e-01 0 
3.44827586206896575e-01 1.37931034482758619e-01 0 
3.79310344827586188e-01 1.37931034482758619e-01 0 
4.13793103448275856e-01 1.37931034482758619e-01 0 
4.48275862068965525e-01 1.37931034482758619e-01 0 
4.82758620689655138e-01 1.37931034482758619e-01 0 
0.00000000000000000e+00 0.00000000000000000e+00 0 
0.00000000000000000e+00 1.72413793103448287e-01 0 
3.44827586206896547e-02 1.72413793103448287e-01 0 
6.89655172413793094e-02 1.72413793103448287e-01 0 
1.03448275862068964e-01 1.72413793103448287e-01 0 
1.37931034482758619e-01 1.72413793103448287e-01 0 
1.72413793103448287e-01 1.72413793103448287e-01 0 
2.06896551724137928e-01 1.72413793103448287e-01 0 
2.41379310344827569e-01 1.72413793103448287e-01 0 
2.75862068965517238e-01 1.72413793103448287e-01 0 
3.10344827586206906e-01 1.72413793103448287e-01 0 
3.44827586206896575e-01 1.72413793103448287e-01 0 
3.79310344827586188e-01 1.72413793103448287e-01 0 
4.13793103448275856e-01 1.72413793103448287e-01 0 
4.48275862068965525e-01 1.72413793103448287e-01 0 
4.82758620689655138e-01 1.72413793103448287e-01 0 
0.00000000000000000e+00 0.00000000000000000e+00 0 
0.00000000000000000e+00 2.06896551724137928e-01 0 
3.44827586206896547e-02 2.06896551724137928e-01 0 
6.89655172413793094e-02 2.06896551724137928e-01 0 
1.03448275862068964e-01 2.06896551724137928e-01 0 
1.37931034482758619e-01 2.06896551724137928e-01 0 
1.72413793103448287e-01 2.06896551724137928e-01 0 
2.06896551724137928e-01 2.06896551724137928e-01 0 
2.41379310344827569e-01 2.06896551724137928e-01 0 
2.75862068965517238e-01 2.06896551724137928e-01 0 
3.10344827586206906e-01 2.06896551724137928e-01 0 
3.44827586206896575e-01 2.06896551724137928e-01 0 
3.79310344827586188e-01 2.06896551724137928e-01 0 
4.13793103448275856e-01 2.06896551724137928e-01 0 
4.48275862068965525e-01 2.06896551724137928e-01 0 
4.82758620689655138e-01 2.06896551724137928e-01 0 
0.00000000000000000e+00 0.00000000000000000e+00 0 
0.00000000000000000e+00 2.41379310344827569e-01 0 
3.44827586206896547e-02 2.41379310344827569e-01 0 
6.89655172413793094e-02 2.41379310344827569e-01 0 
1.03448275862068964e-01 2.41379310344827569e-01 0 
1.37931034482758619e-01 2.41379310344827569e-01 0 
1.72413793103448287e-01 2.41379310344827569e-01 0 
2.06896551724137928e-01 2.41379310344827569e-01 0 
2.41379310344827569e-01 2.41379310344827569e-01 0 
2.75862068965517238e-01 2.41379310344827569e-01 0 
3.10344827586206906e-01 2.41379310344827569e-01 0 
3.44827586206896575e-01 2.41379310344827569e-01 0 
3.79310344827586188e-01 2.41379310344827569e-01 0 
4.13793103448275856e-01 2.41379310344827569e-01 0 
4.48275862068965525e-01 2.41379310344827569e-01 0 
4.82758620689655138e-01 2.41379310344827569e-01 0 
0.00000000000000000e+00 0.00000000000000000e+00 0 
0.00000000000000000e+00 2.75862068965517238e-01 0 
3.44827586206896547e-02 2.75862068965517238e-01 0 
6.89655172413793094e-02 2.75862068965517238e-01 0 
1.03448275862068964e-01 2.75862068965517238e-01 0 
1.37931034482758619e-01 2.75862068965517238e-01 0 
1.72413793103448287e-01 2.75862068965517238e-01 0 
2.06896551724137928e-01 2.75862068965517238e-01 0 
2.41379310344827569e-01 2.75862068965517238e-01 0 
2.75862068965517238e-01 2.75862068965517238e-01 0 
3.10344827586206906e-01 2.75862068965517238e-01 0 
3.44827586206896575e-01 2.75862068965517238e-01 0 
3.79310344827586188e-01 2.75862068965517238e-01 0 
4.13793103448275856e-01 2.75862068965517238e-01 0 
4.48275862068965525e-01 2.75862068965517238e-01 0 
4.82758620689655138e-01 2.75862068965517238e-01 0 
0.00000000000000000e+00 0.00000000000000000e+00 0 
0.00000000000000000e+00 3.10344827586206906e-01 0 
3.44827586206896547e-02 3.10344827586206906e-01 0 
6.89655172413793094e-02 3.10344827586206906e-01 0 
1.03448275862068964e-01 3.10344827586206906e-01 0 
1.37931034482758619e-01 3.10344827586206906e-01 0 
1.72413793103448287e-01 3.10344827586206906e-01 0 
2.06896551724137928e-01 3.10344827586206906e-01 0 
2.41379310344827569e-01 3.10344827586206906e-01 0 
2.75862068965517238e-01 3.10344827586206906e-01 0 
3.10344827586206906e-01 3.10344827586206906e-01 0 
3.44827586206896575e-01 3.10344827586206906e-01 0 
3.79310344827586188e-01 3.10344827586206906e-01 0 
4.13793103448275856e-01 3.10344827586206906e-01 0 
4.48275862068965525e-01 3.10344827586206906e-01 0 
4.82758620689655138e-01 3.10344827586206906e-01 0 
0.00000000000000000e+00 0.00000000000000000e+00 0 
0.00000000000000000e+00 3.44827586206896575e-01 0 
3.44827586206896547e-02 3.44827586206896575e-01 0 
6.89655172413793094e-02 3.44827586206896575e-01 0 
1.03448275862068964e-01 3.44827586206896575e-01 0 
1.37931034482758619e-01 3.44827586206896575e-01 0 
1.72413793103448287e-01 3.44827586206896575e-01 0 
2.06896551724137928e-01 3.44827586206896575e-01 0 
2.41379310344827569e-01 3.44827586206896575e-01 0 
2.75862068965517238e-01 3.44827586206896575e-01 0 
3.10344827586206906e-01 3.44827586206896575e-01 0 
3.44827586206896575e-01 3.44827586206896575e-01 0 
3.79310344827586188e-01 3.44827586206896575e-01 0 
4.13793103448275856e-01 3.44827586206896575e-01 0 
4.48275862068965525e-01 3.44827586206896575e-01 0 
4.82758620689655138e-01 3.44827586206896575e-01 0 
0.00000000000000000e+00 0.00000000000000000e+00 0 
0.00000000000000000e+00 3.79310344827586188e-01 0 
3.44827586206896547e-02 3.79310344827586188e-01 0 
6.89655172413793094e-02 3.79310344827586188e-01 0 
1.03448275862068964e-01 3.79310344827586188e-01 0 
1.37931034482758619e-01 3.79310344827586188e-01 0 
1.72413793103448287e-01 3.79310344827586188e-01 0 
2.06896551724137928e-01 3.79310344827586188e-01 0 
2.41379310344827569e-01 3.79310344827586188e-01 0 
2.75862068965517238e-01 3.79310344827586188e-01 0 
3.10344827586206906e-01 3.79310344827586188e-01 0 
3.44827586206896575e-01 3.79310344827586188e-01 0 
3.79310344827586188e-01 3.79310344827586188e-01 0 
4.13793103448275856e-01 3.79310344827586188e-01 0 
4.48275862068965525e-01 3.79310344827586188e-01 0 
4.82758620689655138e-01 3.79310344827586188e-01 0 
0.00000000000000000e+00 0.00000000000000000e+00 0 
0.00000000000000000e+00 4.13793103448275856e-01 0 
3.44827586206896547e-02 4.13793103448275856e-01 0 
6.89655172413793094e-02 4.13793103448275856e-01 0 
1.03448275862068964e-01 4.13793103448275856e-01 0 
1.37931034482758619e-01 4.13793103448275856e-01 0 
1.72413793103448287e-01 4.13793103448275856e-01 0 
2.06896551724137928e-01 4.13793103448275856e-01 0 
2.41379310344827569e-01 4.13793103448275856e-01 0 
2.75862068965517238e-01 4.13793103448275856e-01 0 
3.10344827586206906e-01 4.13793103448275856e-01 0 
3.44827586206896575e-01 4.13793103448275856e-01 0 
3.79310344827586188e-01 4.13793103448275856e-01 0 
4.13793103448275856e-01 4.13793103448275856e-01 0 
4.48275862068965525e-01 4.13793103448275856e-01 0 
4.82758620689655138e-01 4.13793103448275856e-01 0 
0.00000000000000000e+00 0.00000000000000000e+00 0 
0.00000000000000000e+00 4.48275862068965525e-01 0 
3.44827586206896547e-02 4.48275862068965525e-01 0 
6.89655172413793094e-02 4.48275862068965525e-01 0 
1.03448275862068964e-01 4.48275862068965525e-01 0 
1.37931034482758619e-01 4.48275862068965525e-01 0 
1.72413793103448287e-01 4.48275862068965525e-01 0 
2.06896551724137928e-01 4.48275862068965525e-01 0 
2.41379310344827569e-01 4.48275862068965525e-01 0 
2.75862068965517238e-01 4.48275862068965525e-01 0 
3.10344827586206906e-01 4.48275862068965525e-01 0 
3.44827586206896575e-01 4.48275862068965525e-01 0 
3.79310344827586188e-01 4.48275862068965525e-01 0 
4.13793103448275856e-01 4.48275862068965525e-01 0 
4.48275862068965525e-01 4.48275862068965525e-01 0 
4.82758620689655138e-01 4.48275862068965525e-01 0 
0.00000000000000000e+00 0.00000000000000000e+00 0 
0.00000000000000000e+00 4.82758620689655138e-01 0 
3.44827586206896547e-02 4.82758620689655138e-01 0 
6.89655172413793094e-02 4.82758620689655138e-01 0 
1.03448275862068964e-01 4.82758620689655138e-01 0 
1.37931034482758619e-01 4.82758620689655138e-01 0 
1.72413793103448287e-01 4.82758620689655138e-01 0 
2.06896551724137928e-01 4.82758620689655138e-01 0 
2.41379310344827569e-01 4.82758620689655138e-01 0 
2.75862068965517238e-01 4.82758620689655138e-01 0 
3.10344827586206906e-01 4.82758620689655138e-01 0 
3.44827586206896575e-01 4.82758620689655138e-01 0 
3.79310344827586188e-01 4.82758620689655138e-01 0 
4.13793103448275856e-01 4.82758620689655138e-01 0 
4.48275862068965525e-01 4.82758620689655138e-01 0 
4.82758620689655138e-01 4.82758620689655138e-01 0 
0.00000000000000000e+00 0.00000000000000000e+00 0 
0.00000000000000000e+00 0.00000000000000000e+00 0 
0.00000000000000000e+00 0.00000000000000000e+00 0 
0.00000000000000000e+00 0.00000000000000000e+00 0 
0.00000000000000000e+00 0.00000000000000000e+00 0 
0.00000000000000000e+00 0.00000000000000000e+00 0 
0.00000000000000000e+00 0.00000000000000000e+00 0 
0.00000000000000000e+00 0.00000000000000000e+00 0 
0.00000000000000000e+00 0.00000000000000000e+00 0 
0.00000000000000000e+00 0.00000000000000000e+00 0 
0.00000000000000000e+00 0.00000000000000000e+00 0 
0.00000000000000000e+00 0.00000000000000000e+00 0 
0.00000000000000000e+00 0.00000000000000000e+00 0 
0.00000000000000000e+00 0.00000000000000000e+00 0 
0.00000000000000000e+00 0.00000000000000000e+00 0 
0.00000000000000000e+00 0.00000000000000000e+00 0 
0.00000000000000000e+00 0.00000000000000000e+00 0 
</DataArray>
</Points>
<PointData>
<DataArray type="Float64" Name="heat" NumberOfComponents="1" format="ascii">
3.40000000000000080e+00
3.40118906064209092e+00
3.40475624256836662e+00
3.41070154577883278e+00
3.41902497027348273e+00
3.42972651605231738e+00
3.44280618311533670e+00
3.45826397146254516e+00
3.47609988109393431e+00
3.49631391200951036e+00
3.51890606420927199e+00
3.54387633769321742e+00
3.57122473246135241e+00
3.60095124851366899e+00
3.63305588585017647e+00
0.00000000000000000e+00
3.40237812128418771e+00
3.40356718192627916e+00
3.40713436385255219e+00
3.41307966706301924e+00
3.42140309155766698e+00
3.43210463733650561e+00
3.44518430439952095e+00
3.46064209274672896e+00
3.47847800237812166e+00
3.49869203329369727e+00
3.52128418549345934e+00
3.54625445897740565e+00
3.57360285374554021e+00
3.60332936979785767e+00
3.63543400713436426e+00
0.00000000000000000e+00
3.40951248513674088e+00
3.41070154577883633e+00
3.41426872770511247e+00
3.42021403091557463e+00
3.42853745541022592e+00
3.43923900118906234e+00
3.45231866825208078e+00
3.46777645659928702e+00
3.48561236623067705e+00
3.50582639714625310e+00
3.52841854934601917e+00
3.55338882282996371e+00
3.58073721759809782e+00
3.61046373365041662e+00
3.64256837098692055e+00
0.00000000000000000e+00
3.42140309155766742e+00
3.42259215219976065e+00
3.42615933412603768e+00
3.43210463733650251e+00
3.44042806183115335e+00
3.45112960760998932e+00
3.46420927467300910e+00
3.47966706302021356e+00
3.49750297265160759e+00
3.51771700356718187e+00
3.54030915576694438e+00
3.56527942925089159e+00
3.59262782401902347e+00
3.62235434007134183e+00
3.65445897740784797e+00
0.00000000000000000e+00
3.43804994054696822e+00
3.43923900118906056e+00
3.44280618311534026e+00
3.44875148632580508e+00
3.45707491082045282e+00
3.46777645659928968e+00
3.48085612366230857e+00
3.49631391200951391e+00
3.51414982164090661e+00
3.53436385255648444e+00
3.55695600475624252e+00
3.58192627824019016e+00
3.60927467300832339e+00
3.63900118906064174e+00
3.67110582639714567e+00
0.00000000000000000e+00
3.45945303210463262e+00
3.46064209274673118e+00
3.46420927467301132e+00
3.47015457788347348e+00
3.47847800237812343e+00
3.48917954815695674e+00
3.50225921521997829e+00
3.51771700356718453e+00
3.53555291319857323e+00
3.55576694411415106e+00
3.57835909631391536e+00
3.60332936979785901e+00
3.63067776456599134e+00
3.66040428061830880e+00
3.69250891795481584e+00
0.00000000000000000e+00
3.48561236623067305e+00
3.48680142687276939e+00
3.49036860879904864e+00
3.49631391200951391e+00
3.50463733650416476e+00
3.51533888228299718e+00
3.52841854934601695e+00
3.54387633769322141e+00
3.56171224732461322e+00
3.58192627824018839e+00
3.60451843043995179e+00
3.62948870392390210e+00
3.65683709869203355e+00
3.68656361474435323e+00
3.71866825208085672e+00
0.00000000000000000e+00
3.51652794292508464e+00
3.51771700356718098e+00
3.52128418549345978e+00
3.52722948870392461e+00
3.53555291319857368e+00
3.54625445897740743e+00
3.55933412604042543e+00
3.57479191438763566e+00
3.59262782401902481e+00
3.61284185493460175e+00
3.63543400713436338e+00
3.66040428061831369e+00
3.68775267538644602e+00
3.71747919143876349e+00
3.74958382877526830e+00
0.00000000000000000e+00
3.55219976218787092e+00
3.55338882282996105e+00
3.55695600475624429e+00
3.56290130796670512e+00
3.57122473246135863e+00
3.58192627824019416e+00
3.59500594530321305e+00
3.61046373365041751e+00
3.62829964328180443e+00
3.64851367419738404e+00
3.67110582639714567e+00
3.69607609988109553e+00
3.72342449464922742e+00
3.75315101070154800e+00
3.78525564803804926e+00
0.00000000000000000e+00
3.59262782401902125e+00
3.59381688466111537e+00
3.59738406658739551e+00
3.60332936979786300e+00
3.61165279429251207e+00
3.62235434007134627e+00
3.63543400713436515e+00
3.65089179548157228e+00
3.66872770511296142e+00
3.68894173602853659e+00
3.71153388822829822e+00
3.73650416171224631e+00
3.76385255648037997e+00
3.79357907253270010e+00
3.82568370986920447e+00
0.00000000000000000e+00
3.63781212841854762e+00
3.63900118906063952e+00
3.64256837098692055e+00
3.64851367419738626e+00
3.65683709869203577e+00
3.66753864447086908e+00
3.68061831153388841e+00
3.69607609988109509e+00
3.71391200951248557e+00
3.73412604042806207e+00
3.75671819262782547e+00
3.78168846611177312e+00
3.80903686087990545e+00
3.83876337693222647e+00
3.87086801426873039e+00
0.00000000000000000e+00
3.68775267538644380e+00
3.68894173602853792e+00
3.69250891795481451e+00
3.69845422116527933e+00
3.70677764565993018e+00
3.71747919143876437e+00
3.73055885850178504e+00
3.74601664684899172e+00
3.76385255648038219e+00
3.78406658739595736e+00
3.80665873959572032e+00
3.83162901307966752e+00
3.85897740784779897e+00
3.88870392390011999e+00
3.92080856123662347e+00
0.00000000000000000e+00
3.74244946492271024e+00
3.74363852556480348e+00
3.74720570749108051e+00
3.75315101070154844e+00
3.76147443519619706e+00
3.77217598097502949e+00
3.78525564803805281e+00
3.80071343638525594e+00
3.81854934601664908e+00
3.83876337693222736e+00
3.86135552913198854e+00
3.88632580261593441e+00
3.91367419738406586e+00
3.94340071343638687e+00
3.97550535077289124e+00
0.00000000000000000e+00
3.80190249702734651e+00
3.80309155766943929e+00
3.80665873959571766e+00
3.81260404280618115e+00
3.82092746730083421e+00
3.83162901307966930e+00
3.84470868014268996e+00
3.86016646848989620e+00
3.87800237812128623e+00
3.89821640903686228e+00
3.92080856123662480e+00
3.94577883472057112e+00
3.97312722948870611e+00
4.00285374554102269e+00
4.03495838287752573e+00
0.00000000000000000e+00
3.86611177170035214e+00
3.86730083234244937e+00
3.87086801426872951e+00
3.87681331747919078e+00
3.88513674197383940e+00
3.89583828775267937e+00
3.90891795481569826e+00
3.92437574316290538e+00
3.94221165279429586e+00
3.96242568370987058e+00
3.98501783590963310e+00
4.00998810939358208e+00
4.03733650416170775e+00
4.06706302021402877e+00
4.09916765755053714e+00
0.00000000000000000e+00
0.00000000000000000e+00
0.00000000000000000e+00
0.00000000000000000e+00
0.00000000000000000e+00
0.00000000000000000e+00
0.00000000000000000e+00
0.00000000000000000e+00
0.00000000000000000e+00
0.00000000000000000e+00
0.00000000000000000e+00
0.00000000000000000e+00
0.00000000000000000e+00
0.00000000000000000e+00
0.00000000000000000e+00
0.00000000000000000e+00
0.00000000000000000e+00
</DataArray>
</PointData>
</Piece>
</StructuredGrid>
</VTKFile>
