<?xml version="1.0"?>
<VTKFile type="StructuredGrid">
<StructuredGrid WholeExtent="14 29 14 29 0 0 ">
<Piece Extent="14 29 14 29 0 0 ">
<Points>
<DataArray type="Float64" Name="coordinate" NumberOfComponents="3" format="ascii">
0.00000000000000000e+00 0.00000000000000000e+00 0 
0.00000000000000000e+00 0.00000000000000000e+00 0 
0.00000000000000000e+00 0.00000000000000000e+00 0 
0.00000000000000000e+00 0.00000000000000000e+00 0 
0.00000000000000000e+00 0.00000000000000000e+00 0 
0.00000000000000000e+00 0.00000000000000000e+00 0 
0.00000000000000000e+00 0.00000000000000000e+00 0 
0.00000000000000000e+00 0.00000000000000000e+00 0 
0.00000000000000000e+00 0.00000000000000000e+00 0 
0.00000000000000000e+00 0.00000000000000000e+00 0 
0.00000000000000000e+00 0.00000000000000000e+00 0 
0.00000000000000000e+00 0.00000000000000000e+00 0 
0.00000000000000000e+00 0.00000000000000000e+00 0 
0.00000000000000000e+00 0.00000000000000000e+00 0 
0.00000000000000000e+00 0.00000000000000000e+00 0 
0.00000000000000000e+00 0.00000000000000000e+00 0 
0.00000000000000000e+00 0.00000000000000000e+00 0 
5.17241379310344862e-01 5.17241379310344862e-01 0 
5.51724137931034475e-01 5.17241379310344862e-01 0 
5.86206896551724088e-01 5.17241379310344862e-01 0 
6.20689655172413812e-01 5.17241379310344862e-01 0 
6.55172413793103425e-01 5.17241379310344862e-01 0 
6.89655172413793149e-01 5.17241379310344862e-01 0 
7.24137931034482762e-01 5.17241379310344862e-01 0 
7.58620689655172376e-01 5.17241379310344862e-01 0 
7.93103448275862100e-01 5.17241379310344862e-01 0 
8.27586206896551713e-01 5.17241379310344862e-01 0 
8.62068965517241326e-01 5.17241379310344862e-01 0 
8.96551724137931050e-01 5.17241379310344862e-01 0 
9.31034482758620663e-01 5.17241379310344862e-01 0 
9.65517241379310276e-01 5.17241379310344862e-01 0 
1.00000000000000000e+00 5.17241379310344862e-01 0 
0.00000000000000000e+00 0.00000000000000000e+00 0 
5.17241379310344862e-01 5.51724137931034475e-01 0 
5.51724137931034475e-01 5.51724137931034475e-01 0 
5.86206896551724088e-01 5.51724137931034475e-01 0 
6.20689655172413812e-01 5.51724137931034475e-01 0 
6.55172413793103425e-01 5.51724137931034475e-01 0 
6.89655172413793149e-01 5.51724137931034475e-01 0 
7.24137931034482762e-01 5.51724137931034475e-01 0 
7.58620689655172376e-01 5.51724137931034475e-01 0 
7.93103448275862100e-01 5.51724137931034475e-01 0 
8.27586206896551713e-01 5.51724137931034475e-01 0 
8.62068965517241326e-01 5.51724137931034475e-01 0 
8.96551724137931050e-01 5.51724137931034475e-01 0 
9.31034482758620663e-01 5.51724137931034475e-01 0 
9.65517241379310276e-01 5.51724137931034475e-01 0 
1.00000000000000000e+00 5.51724137931034475e-01 0 
0.00000000000000000e+00 0.00000000000000000e+00 0 
5.17241379310344862e-01 5.86206896551724088e-01 0 
5.51724137931034475e-01 5.86206896551724088e-01 0 
5.86206896551724088e-01 5.86206896551724088e-01 0 
6.20689655172413812e-01 5.86206896551724088e-01 0 
6.55172413793103425e-01 5.86206896551724088e-01 0 
6.89655172413793149e-01 5.86206896551724088e-01 0 
7.24137931034482762e-01 5.86206896551724088e-01 0 
7.58620689655172376e-01 5.86206896551724088e-01 0 
7.93103448275862100e-01 5.86206896551724088e-01 0 
8.27586206896551713e-01 5.86206896551724088e-01 0 
8.62068965517241326e-01 5.86206896551724088e-01 0 
8.96551724137931050e-01 5.86206896551724088e-01 0 
9.31034482758620663e-01 5.86206896551724088e-01 0 
9.65517241379310276e-01 5.86206896551724088e-01 0 
1.00000000000000000e+00 5.86206896551724088e-01 0 
0.00000000000000000e+00 0.00000000000000000e+00 0 
5.17241379310344862e-01 6.20689655172413812e-01 0 
5.51724137931034475e-01 6.20689655172413812e-01 0 
5.86206896551724088e-01 6.20689655172413812e-01 0 
6.20689655172413812e-01 6.20689655172413812e-01 0 
6.55172413793103425e-01 6.20689655172413812e-01 0 
6.89655172413793149e-01 6.20689655172413812e-01 0 
7.24137931034482762e-01 6.20689655172413812e-01 0 
7.58620689655172376e-01 6.20689655172413812e-01 0 
7.93103448275862100e-01 6.20689655172413812e-01 0 
8.27586206896551713e-01 6.20689655172413812e-01 0 
8.62068965517241326e-01 6.20689655172413812e-01 0 
8.96551724137931050e-01 6.20689655172413812e-01 0 
9.31034482758620663e-01 6.20689655172413812e-01 0 
9.65517241379310276e-01 6.20689655172413812e-01 0 
1.00000000000000000e+00 6.20689655172413812e-01 0 
0.00000000000000000e+00 0.00000000000000000e+00 0 
5.17241379310344862e-01 6.55172413793103425e-01 0 
5.51724137931034475e-01 6.55172413793103425e-01 0 
5.86206896551724088e-01 6.55172413793103425e-01 0 
6.20689655172413812e-01 6.55172413793103425e-01 0 
6.55172413793103425e-01 6.55172413793103425e-01 0 
6.89655172413793149e-01 6.55172413793103425e-01 0 
7.24137931034482762e-01 6.55172413793103425e-01 0 
7.58620689655172376e-01 6.55172413793103425e-01 0 
7.93103448275862100e-01 6.55172413793103425e-01 0 
8.27586206896551713e-01 6.55172413793103425e-01 0 
8.62068965517241326e-01 6.55172413793103425e-01 0 
8.96551724137931050e-01 6.55172413793103425e-01 0 
9.31034482758620663e-01 6.55172413793103425e-01 0 
9.65517241379310276e-01 6.55172413793103425e-01 0 
1.00000000000000000e+00 6.55172413793103425e-01 0 
0.00000000000000000e+00 0.00000000000000000e+00 0 
5.17241379310344862e-01 6.89655172413793149e-01 0 
5.51724137931034475e-01 6.89655172413793149e-01 0 
5.86206896551724088e-01 6.89655172413793149e-01 0 
6.20689655172413812e-01 6.89655172413793149e-01 0 
6.55172413793103425e-01 6.89655172413793149e-01 0 
6.89655172413793149e-01 6.89655172413793149e-01 0 
7.24137931034482762e-01 6.89655172413793149e-01 0 
7.58620689655172376e-01 6.89655172413793149e-01 0 
7.93103448275862100e-01 6.89655172413793149e-01 0 
8.27586206896551713e-01 6.89655172413793149e-01 0 
8.62068965517241326e-01 6.89655172413793149e-01 0 
8.96551724137931050e-01 6.89655172413793149e-01 0 
9.31034482758620663e-01 6.89655172413793149e-01 0 
9.65517241379310276e-01 6.89655172413793149e-01 0 
1.00000000000000000e+00 6.89655172413793149e-01 0 
0.00000000000000000e+00 0.00000000000000000e+00 0 
5.17241379310344862e-01 7.24137931034482762e-01 0 
5.51724137931034475e-01 7.24137931034482762e-01 0 
5.86206896551724088e-01 7.24137931034482762e-01 0 
6.20689655172413812e-01 7.24137931034482762e-01 0 
6.55172413793103425e-01 7.24137931034482762e-01 0 
6.89655172413793149e-01 7.24137931034482762e-01 0 
7.24137931034482762e-01 7.24137931034482762e-01 0 
7.58620689655172376e-01 7.24137931034482762e-01 0 
7.93103448275862100e-01 7.24137931034482762e-01 0 
8.27586206896551713e-01 7.24137931034482762e-01 0 
8.62068965517241326e-01 7.24137931034482762e-01 0 
8.96551724137931050e-01 7.24137931034482762e-01 0 
9.31034482758620663e-01 7.24137931034482762e-01 0 
9.65517241379310276e-01 7.24137931034482762e-01 0 
1.00000000000000000e+00 7.24137931034482762e-01 0 
0.00000000000000000e+00 0.00000000000000000e+00 0 
5.17241379310344862e-01 7.58620689655172376e-01 0 
5.51724137931034475e-01 7.58620689655172376e-01 0 
5.86206896551724088e-01 7.58620689655172376e-01 0 
6.20689655172413812e-01 7.58620689655172376e-01 0 
6.55172413793103425e-01 7.58620689655172376e-01 0 
6.89655172413793149e-01 7.58620689655172376e-01 0 
7.24137931034482762e-01 7.58620689655172376e-01 0 
7.58620689655172376e-01 7.58620689655172376e-01 0 
7.93103448275862100e-01 7.58620689655172376e-01 0 
8.27586206896551713e-01 7.58620689655172376e-01 0 
8.62068965517241326e-01 7.58620689655172376e-01 0 
8.96551724137931050e-01 7.58620689655172376e-01 0 
9.31034482758620663e-01 7.58620689655172376e-01 0 
9.65517241379310276e-01 7.58620689655172376e-01 0 
1.00000000000000000e+00 7.58620689655172376e-01 0 
0.00000000000000000e+00 0.00000000000000000e+00 0 
5.17241379310344862e-01 7.93103448275862100e-01 0 
5.51724137931034475e-01 7.93103448275862100e-01 0 
5.86206896551724088e-01 7.93103448275862100e-01 0 
6.20689655172413812e-01 7.93103448275862100e-01 0 
6.55172413793103425e-01 7.93103448275862100e-01 0 
6.89655172413793149e-01 7.93103448275862100e-01 0 
7.24137931034482762e-01 7.93103448275862100e-01 0 
7.58620689655172376e-01 7.93103448275862100e-01 0 
7.93103448275862100e-01 7.93103448275862100e-01 0 
8.27586206896551713e-01 7.93103448275862100e-01 0 
8.62068965517241326e-01 7.93103448275862100e-01 0 
8.96551724137931050e-01 7.93103448275862100e-01 0 
9.31034482758620663e-01 7.93103448275862100e-01 0 
9.65517241379310276e-01 7.93103448275862100e-01 0 
1.00000000000000000e+00 7.93103448275862100e-01 0 
0.00000000000000000e+00 0.00000000000000000e+00 0 
5.17241379310344862e-01 8.27586206896551713e-01 0 
5.51724137931034475e-01 8.27586206896551713e-01 0 
5.86206896551724088e-01 8.27586206896551713e-01 0 
6.20689655172413812e-01 8.27586206896551713e-01 0 
6.55172413793103425e-01 8.27586206896551713e-01 0 
6.89655172413793149e-01 8.27586206896551713e-01 0 
7.24137931034482762e-01 8.27586206896551713e-01 0 
7.58620689655172376e-01 8.27586206896551713e-01 0 
7.93103448275862100e-01 8.27586206896551713e-01 0 
8.27586206896551713e-01 8.27586206896551713e-01 0 
8.62068965517241326e-01 8.27586206896551713e-01 0 
8.96551724137931050e-01 8.27586206896551713e-01 0 
9.31034482758620663e-01 8.27586206896551713e-01 0 
9.65517241379310276e-01 8.27586206896551713e-01 0 
1.00000000000000000e+00 8.27586206896551713e-01 0 
0.00000000000000000e+00 0.00000000000000000e+00 0 
5.17241379310344862e-01 8.62068965517241326e-01 0 
5.51724137931034475e-01 8.62068965517241326e-01 0 
5.86206896551724088e-01 8.62068965517241326e-01 0 
6.20689655172413812e-01 8.62068965517241326e-01 0 
6.55172413793103425e-01 8.62068965517241326e-01 0 
6.89655172413793149e-01 8.62068965517241326e-01 0 
7.24137931034482762e-01 8.62068965517241326e-01 0 
7.58620689655172376e-01 8.62068965517241326e-01 0 
7.93103448275862100e-01 8.62068965517241326e-01 0 
8.27586206896551713e-01 8.62068965517241326e-01 0 
8.62068965517241326e-01 8.62068965517241326e-01 0 
8.96551724137931050e-01 8.62068965517241326e-01 0 
9.31034482758620663e-01 8.62068965517241326e-01 0 
9.65517241379310276e-01 8.62068965517241326e-01 0 
1.00000000000000000e+00 8.62068965517241326e-01 0 
0.00000000000000000e+00 0.00000000000000000e+00 0 
5.17241379310344862e-01 8.96551724137931050e-01 0 
5.51724137931034475e-01 8.96551724137931050e-01 0 
5.86206896551724088e-01 8.96551724137931050e-01 0 
6.20689655172413812e-01 8.96551724137931050e-01 0 
6.55172413793103425e-01 8.96551724137931050e-01 0 
6.89655172413793149e-01 8.96551724137931050e-01 0 
7.24137931034482762e-01 8.96551724137931050e-01 0 
7.58620689655172376e-01 8.96551724137931050e-01 0 
7.93103448275862100e-01 8.96551724137931050e-01 0 
8.27586206896551713e-01 8.96551724137931050e-01 0 
8.62068965517241326e-01 8.96551724137931050e-01 0 
8.96551724137931050e-01 8.96551724137931050e-01 0 
9.31034482758620663e-01 8.96551724137931050e-01 0 
9.65517241379310276e-01 8.96551724137931050e-01 0 
1.00000000000000000e+00 8.96551724137931050e-01 0 
0.00000000000000000e+00 0.00000000000000000e+00 0 
5.17241379310344862e-01 9.31034482758620663e-01 0 
5.51724137931034475e-01 9.31034482758620663e-01 0 
5.86206896551724088e-01 9.31034482758620663e-01 0 
6.20689655172413812e-01 9.31034482758620663e-01 0 
6.55172413793103425e-01 9.31034482758620663e-01 0 
6.89655172413793149e-01 9.31034482758620663e-01 0 
7.24137931034482762e-01 9.31034482758620663e-01 0 
7.58620689655172376e-01 9.31034482758620663e-01 0 
7.93103448275862100e-01 9.31034482758620663e-01 0 
8.27586206896551713e-01 9.31034482758620663e-01 0 
8.62068965517241326e-01 9.31034482758620663e-01 0 
8.96551724137931050e-01 9.31034482758620663e-01 0 
9.31034482758620663e-01 9.31034482758620663e-01 0 
9.65517241379310276e-01 9.31034482758620663e-01 0 
1.00000000000000000e+00 9.31034482758620663e-01 0 
0.00000000000000000e+00 0.00000000000000000e+00 0 
5.17241379310344862e-01 9.65517241379310276e-01 0 
5.51724137931034475e-01 9.65517241379310276e-01 0 
5.86206896551724088e-01 9.65517241379310276e-01 0 
6.20689655172413812e-01 9.65517241379310276e-01 0 
6.55172413793103425e-01 9.65517241379310276e-01 0 
6.89655172413793149e-01 9.65517241379310276e-01 0 
7.24137931034482762e-01 9.65517241379310276e-01 0 
7.58620689655172376e-01 9.65517241379310276e-01 0 
7.93103448275862100e-01 9.65517241379310276e-01 0 
8.27586206896551713e-01 9.65517241379310276e-01 0 
8.62068965517241326e-01 9.65517241379310276e-01 0 
8.96551724137931050e-01 9.65517241379310276e-01 0 
9.31034482758620663e-01 9.65517241379310276e-01 0 
9.65517241379310276e-01 9.65517241379310276e-01 0 
1.00000000000000000e+00 9.65517241379310276e-01 0 
0.00000000000000000e+00 0.00000000000000000e+00 0 
5.17241379310344862e-01 1.00000000000000000e+00 0 
5.51724137931034475e-01 1.00000000000000000e+00 0 
5.86206896551724088e-01 1.00000000000000000e+00 0 
6.20689655172413812e-01 1.00000000000000000e+00 0 
6.55172413793103425e-01 1.00000000000000000e+00 0 
6.89655172413793149e-01 1.00000000000000000e+00 0 
7.24137931034482762e-01 1.00000000000000000e+00 0 
7.58620689655172376e-01 1.00000000000000000e+00 0 
7.93103448275862100e-01 1.00000000000000000e+00 0 
8.27586206896551713e-01 1.00000000000000000e+00 0 
8.62068965517241326e-01 1.00000000000000000e+00 0 
8.96551724137931050e-01 1.00000000000000000e+00 0 
9.31034482758620663e-01 1.00000000000000000e+00 0 
9.65517241379310276e-01 1.00000000000000000e+00 0 
1.00000000000000000e+00 1.00000000000000000e+00 0 
</DataArray>
</Points>
<PointData>
<DataArray type="Float64" Name="heat" NumberOfComponents="1" format="ascii">
0.00000000000000000e+00
0.00000000000000000e+00
0.00000000000000000e+00
0.00000000000000000e+00
0.00000000000000000e+00
0.00000000000000000e+00
0.00000000000000000e+00
0.00000000000000000e+00
0.00000000000000000e+00
0.00000000000000000e+00
0.00000000000000000e+00
0.00000000000000000e+00
0.00000000000000000e+00
0.00000000000000000e+00
0.00000000000000000e+00
0.00000000000000000e+00
0.00000000000000000e+00
4.20261593341260564e+00
4.23947681331748161e+00
4.27871581450654226e+00
4.32033293697978582e+00
4.36432818073721940e+00
4.41070154577883677e+00
4.45945303210463795e+00
4.51058263971462381e+00
4.56409036860879702e+00
4.61997621878715758e+00
4.67824019024970106e+00
4.73888228299643011e+00
4.80190249702735095e+00
4.86730083234245114e+00
4.93507728894173159e+00
0.00000000000000000e+00
4.27633769322235757e+00
4.31319857312722910e+00
4.35243757431629508e+00
4.39405469678954397e+00
4.43804994054696600e+00
4.48442330558858782e+00
4.53317479191438544e+00
4.58430439952437219e+00
4.63781212841855339e+00
4.69369797859690774e+00
4.75196195005945299e+00
4.81260404280618204e+00
4.87562425683710110e+00
4.94102259215220130e+00
5.00879904875148085e+00
0.00000000000000000e+00
4.35481569560047976e+00
4.39167657550535484e+00
4.43091557669441460e+00
4.47253269916765372e+00
4.51652794292509174e+00
4.56290130796670645e+00
4.61165279429251385e+00
4.66278240190249882e+00
4.71629013079666937e+00
4.77217598097503082e+00
4.83043995243757518e+00
4.89108204518430512e+00
4.95410225921522152e+00
5.01950059453032615e+00
5.08727705112960571e+00
0.00000000000000000e+00
4.43804994054696422e+00
4.47491082045184552e+00
4.51414982164090706e+00
4.55576694411415062e+00
4.59976218787158420e+00
4.64613555291319713e+00
4.69488703923900186e+00
4.74601664684899394e+00
4.79952437574316626e+00
4.85541022592152505e+00
4.91367419738406941e+00
4.97431629013079490e+00
5.03733650416171219e+00
5.10273483947681594e+00
5.17051129607609550e+00
0.00000000000000000e+00
4.52604042806183493e+00
4.56290130796670379e+00
4.60214030915576622e+00
4.64375743162901600e+00
4.68775267538644425e+00
4.73412604042806429e+00
4.78287752675386724e+00
4.83400713436385665e+00
4.88751486325802986e+00
4.94340071343638776e+00
5.00166468489893479e+00
5.06230677764566295e+00
5.12532699167657402e+00
5.19072532699167866e+00
5.25850178359095910e+00
0.00000000000000000e+00
4.61878715814506613e+00
4.65564803804993943e+00
4.69488703923899919e+00
4.73650416171224631e+00
4.78049940546968166e+00
4.82687277051129282e+00
4.87562425683710199e+00
4.92675386444708607e+00
4.98026159334126284e+00
5.03614744351962251e+00
5.09441141498216687e+00
5.15505350772889503e+00
5.21807372175980966e+00
5.28347205707490808e+00
5.35124851367419652e+00
0.00000000000000000e+00
4.71629013079667025e+00
4.75315101070154977e+00
4.79239001189060598e+00
4.83400713436385399e+00
4.87800237812128668e+00
4.92437574316290316e+00
4.97312722948870434e+00
5.02425683709868931e+00
5.07776456599286963e+00
5.13365041617122220e+00
5.19191438763376656e+00
5.25255648038050271e+00
5.31557669441141467e+00
5.38097502972652020e+00
5.44875148632580064e+00
0.00000000000000000e+00
4.81854934601664642e+00
4.85541022592151883e+00
4.89464922711058215e+00
4.93626634958383814e+00
4.98026159334126461e+00
5.02663495838287755e+00
5.07538644470867961e+00
5.12651605231867435e+00
5.18002378121284579e+00
5.23590963139120458e+00
5.29417360285374805e+00
5.35481569560048154e+00
5.41783590963139261e+00
5.48323424494649192e+00
5.55101070154577592e+00
0.00000000000000000e+00
4.92556480380499995e+00
4.96242568370987236e+00
5.00166468489893301e+00
5.04328180737217480e+00
5.08727705112961193e+00
5.13365041617122575e+00
5.18240190249702870e+00
5.23353151010701456e+00
5.28703923900119044e+00
5.34292508917955100e+00
5.40118906064209625e+00
5.46183115338882352e+00
5.52485136741974348e+00
5.59024970273484101e+00
5.65802615933412145e+00
0.00000000000000000e+00
5.03733650416171042e+00
5.07419738406658727e+00
5.11343638525564526e+00
5.15505350772889415e+00
5.19904875148632772e+00
5.24542211652794332e+00
5.29417360285374450e+00
5.34530321046373391e+00
5.39881093935790624e+00
5.45469678953626680e+00
5.51296076099881383e+00
5.57360285374554376e+00
5.63662306777646105e+00
5.70202140309155769e+00
5.76979785969083725e+00
0.00000000000000000e+00
5.15386444708679736e+00
5.19072532699167866e+00
5.22996432818073842e+00
5.27158145065398287e+00
5.31557669441141645e+00
5.36195005945302672e+00
5.41070154577883589e+00
5.46183115338881908e+00
5.51533888228299851e+00
5.57122473246135907e+00
5.62948870392389988e+00
5.69013079667063160e+00
5.75315101070154711e+00
5.81854934601664819e+00
5.88632580261592864e+00
0.00000000000000000e+00
5.27514863258026523e+00
5.31200951248514119e+00
5.35124851367419918e+00
5.39286563614744274e+00
5.43686087990487188e+00
5.48323424494649636e+00
5.53198573127230198e+00
5.58311533888228695e+00
5.63662306777645483e+00
5.69250891795481895e+00
5.75077288941735976e+00
5.81141498216408614e+00
5.87443519619500432e+00
5.93983353151010718e+00
6.00760998810939029e+00
0.00000000000000000e+00
5.40118906064209447e+00
5.43804994054696778e+00
5.47728894173602843e+00
5.51890606420927643e+00
5.56290130796669935e+00
5.60927467300832117e+00
5.65802615933412412e+00
5.70915576694411442e+00
5.76266349583828674e+00
5.81854934601664553e+00
5.87681331747919611e+00
5.93745541022592072e+00
6.00047562425683623e+00
6.06587395957194353e+00
6.13365041617122309e+00
0.00000000000000000e+00
5.53198573127229665e+00
5.56884661117717261e+00
5.60808561236622793e+00
5.64970273483947061e+00
5.69369797859690330e+00
5.74007134363852689e+00
5.78882282996432540e+00
5.83995243757431570e+00
5.89346016646848714e+00
5.94934601664685037e+00
6.00760998810939917e+00
6.06825208085612289e+00
6.13127229488704373e+00
6.19667063020214126e+00
6.26444708680141726e+00
0.00000000000000000e+00
5.66753864447086464e+00
5.70439952437573705e+00
5.74363852556479770e+00
5.78525564803805015e+00
5.82925089179547662e+00
5.87562425683709577e+00
5.92437574316289783e+00
5.97550535077288725e+00
6.02901307966705868e+00
6.08489892984542013e+00
6.14316290130796450e+00
6.20380499405469354e+00
6.26682520808560728e+00
6.33222354340070748e+00
6.39999999999999680e+00
</DataArray>
</PointData>
</Piece>
</StructuredGrid>
</VTKFile>
