<?xml version="1.0"?>
<VTKFile type="StructuredGrid">
<StructuredGrid WholeExtent="0 15 14 29 0 0 ">
<Piece Extent="0 15 14 29 0 0 ">
<Points>
<DataArray type="Float64" Name="coordinate" NumberOfComponents="3" format="ascii">
0.00000000000000000e+00 0.00000000000000000e+00 0 
0.00000000000000000e+00 0.00000000000000000e+00 0 
0.00000000000000000e+00 0.00000000000000000e+00 0 
0.00000000000000000e+00 0.00000000000000000e+00 0 
0.00000000000000000e+00 0.00000000000000000e+00 0 
0.00000000000000000e+00 0.00000000000000000e+00 0 
0.00000000000000000e+00 0.00000000000000000e+00 0 
0.00000000000000000e+00 0.00000000000000000e+00 0 
0.00000000000000000e+00 0.00000000000000000e+00 0 
0.00000000000000000e+00 0.00000000000000000e+00 0 
0.00000000000000000e+00 0.00000000000000000e+00 0 
0.00000000000000000e+00 0.00000000000000000e+00 0 
0.00000000000000000e+00 0.00000000000000000e+00 0 
0.00000000000000000e+00 0.00000000000000000e+00 0 
0.00000000000000000e+00 0.00000000000000000e+00 0 
0.00000000000000000e+00 0.00000000000000000e+00 0 
0.00000000000000000e+00 5.17241379310344862e-01 0 
3.44827586206896547e-02 5.17241379310344862e-01 0 
6.89655172413793094e-02 5.17241379310344862e-01 0 
1.03448275862068964e-01 5.17241379310344862e-01 0 
1.37931034482758619e-01 5.17241379310344862e-01 0 
1.72413793103448287e-01 5.17241379310344862e-01 0 
2.06896551724137928e-01 5.17241379310344862e-01 0 
2.41379310344827569e-01 5.17241379310344862e-01 0 
2.75862068965517238e-01 5.17241379310344862e-01 0 
3.10344827586206906e-01 5.17241379310344862e-01 0 
3.44827586206896575e-01 5.17241379310344862e-01 0 
3.79310344827586188e-01 5.17241379310344862e-01 0 
4.13793103448275856e-01 5.17241379310344862e-01 0 
4.48275862068965525e-01 5.17241379310344862e-01 0 
4.82758620689655138e-01 5.17241379310344862e-01 0 
0.00000000000000000e+00 0.00000000000000000e+00 0 
0.00000000000000000e+00 5.51724137931034475e-01 0 
3.44827586206896547e-02 5.51724137931034475e-01 0 
6.89655172413793094e-02 5.51724137931034475e-01 0 
1.03448275862068964e-01 5.51724137931034475e-01 0 
1.37931034482758619e-01 5.51724137931034475e-01 0 
1.72413793103448287e-01 5.51724137931034475e-01 0 
2.06896551724137928e-01 5.51724137931034475e-01 0 
2.41379310344827569e-01 5.51724137931034475e-01 0 
2.75862068965517238e-01 5.51724137931034475e-01 0 
3.10344827586206906e-01 5.51724137931034475e-01 0 
3.44827586206896575e-01 5.51724137931034475e-01 0 
3.79310344827586188e-01 5.51724137931034475e-01 0 
4.13793103448275856e-01 5.51724137931034475e-01 0 
4.48275862068965525e-01 5.51724137931034475e-01 0 
4.82758620689655138e-01 5.51724137931034475e-01 0 
0.00000000000000000e+00 0.00000000000000000e+00 0 
0.00000000000000000e+00 5.86206896551724088e-01 0 
3.44827586206896547e-02 5.86206896551724088e-01 0 
6.89655172413793094e-02 5.86206896551724088e-01 0 
1.03448275862068964e-01 5.86206896551724088e-01 0 
1.37931034482758619e-01 5.86206896551724088e-01 0 
1.72413793103448287e-01 5.86206896551724088e-01 0 
2.06896551724137928e-01 5.86206896551724088e-01 0 
2.41379310344827569e-01 5.86206896551724088e-01 0 
2.75862068965517238e-01 5.86206896551724088e-01 0 
3.10344827586206906e-01 5.86206896551724088e-01 0 
3.44827586206896575e-01 5.86206896551724088e-01 0 
3.79310344827586188e-01 5.86206896551724088e-01 0 
4.13793103448275856e-01 5.86206896551724088e-01 0 
4.48275862068965525e-01 5.86206896551724088e-01 0 
4.82758620689655138e-01 5.86206896551724088e-01 0 
0.00000000000000000e+00 0.00000000000000000e+00 0 
0.00000000000000000e+00 6.20689655172413812e-01 0 
3.44827586206896547e-02 6.20689655172413812e-01 0 
6.89655172413793094e-02 6.20689655172413812e-01 0 
1.03448275862068964e-01 6.20689655172413812e-01 0 
1.37931034482758619e-01 6.20689655172413812e-01 0 
1.72413793103448287e-01 6.20689655172413812e-01 0 
2.06896551724137928e-01 6.20689655172413812e-01 0 
2.41379310344827569e-01 6.20689655172413812e-01 0 
2.75862068965517238e-01 6.20689655172413812e-01 0 
3.10344827586206906e-01 6.20689655172413812e-01 0 
3.44827586206896575e-01 6.20689655172413812e-01 0 
3.79310344827586188e-01 6.20689655172413812e-01 0 
4.13793103448275856e-01 6.20689655172413812e-01 0 
4.48275862068965525e-01 6.20689655172413812e-01 0 
4.82758620689655138e-01 6.20689655172413812e-01 0 
0.00000000000000000e+00 0.00000000000000000e+00 0 
0.00000000000000000e+00 6.55172413793103425e-01 0 
3.44827586206896547e-02 6.55172413793103425e-01 0 
6.89655172413793094e-02 6.55172413793103425e-01 0 
1.03448275862068964e-01 6.55172413793103425e-01 0 
1.37931034482758619e-01 6.55172413793103425e-01 0 
1.72413793103448287e-01 6.55172413793103425e-01 0 
2.06896551724137928e-01 6.55172413793103425e-01 0 
2.41379310344827569e-01 6.55172413793103425e-01 0 
2.75862068965517238e-01 6.55172413793103425e-01 0 
3.10344827586206906e-01 6.55172413793103425e-01 0 
3.44827586206896575e-01 6.55172413793103425e-01 0 
3.79310344827586188e-01 6.55172413793103425e-01 0 
4.13793103448275856e-01 6.55172413793103425e-01 0 
4.48275862068965525e-01 6.55172413793103425e-01 0 
4.82758620689655138e-01 6.55172413793103425e-01 0 
0.00000000000000000e+00 0.00000000000000000e+00 0 
0.00000000000000000e+00 6.89655172413793149e-01 0 
3.44827586206896547e-02 6.89655172413793149e-01 0 
6.89655172413793094e-02 6.89655172413793149e-01 0 
1.03448275862068964e-01 6.89655172413793149e-01 0 
1.37931034482758619e-01 6.89655172413793149e-01 0 
1.72413793103448287e-01 6.89655172413793149e-01 0 
2.06896551724137928e-01 6.89655172413793149e-01 0 
2.41379310344827569e-01 6.89655172413793149e-01 0 
2.75862068965517238e-01 6.89655172413793149e-01 0 
3.10344827586206906e-01 6.89655172413793149e-01 0 
3.44827586206896575e-01 6.89655172413793149e-01 0 
3.79310344827586188e-01 6.89655172413793149e-01 0 
4.13793103448275856e-01 6.89655172413793149e-01 0 
4.48275862068965525e-01 6.89655172413793149e-01 0 
4.82758620689655138e-01 6.89655172413793149e-01 0 
0.00000000000000000e+00 0.00000000000000000e+00 0 
0.00000000000000000e+00 7.24137931034482762e-01 0 
3.44827586206896547e-02 7.24137931034482762e-01 0 
6.89655172413793094e-02 7.24137931034482762e-01 0 
1.03448275862068964e-01 7.24137931034482762e-01 0 
1.37931034482758619e-01 7.24137931034482762e-01 0 
1.72413793103448287e-01 7.24137931034482762e-01 0 
2.06896551724137928e-01 7.24137931034482762e-01 0 
2.41379310344827569e-01 7.24137931034482762e-01 0 
2.75862068965517238e-01 7.24137931034482762e-01 0 
3.10344827586206906e-01 7.24137931034482762e-01 0 
3.44827586206896575e-01 7.24137931034482762e-01 0 
3.79310344827586188e-01 7.24137931034482762e-01 0 
4.13793103448275856e-01 7.24137931034482762e-01 0 
4.48275862068965525e-01 7.24137931034482762e-01 0 
4.82758620689655138e-01 7.24137931034482762e-01 0 
0.00000000000000000e+00 0.00000000000000000e+00 0 
0.00000000000000000e+00 7.58620689655172376e-01 0 
3.44827586206896547e-02 7.58620689655172376e-01 0 
6.89655172413793094e-02 7.58620689655172376e-01 0 
1.03448275862068964e-01 7.58620689655172376e-01 0 
1.37931034482758619e-01 7.58620689655172376e-01 0 
1.72413793103448287e-01 7.58620689655172376e-01 0 
2.06896551724137928e-01 7.58620689655172376e-01 0 
2.41379310344827569e-01 7.58620689655172376e-01 0 
2.75862068965517238e-01 7.58620689655172376e-01 0 
3.10344827586206906e-01 7.58620689655172376e-01 0 
3.44827586206896575e-01 7.58620689655172376e-01 0 
3.79310344827586188e-01 7.58620689655172376e-01 0 
4.13793103448275856e-01 7.58620689655172376e-01 0 
4.48275862068965525e-01 7.58620689655172376e-01 0 
4.82758620689655138e-01 7.58620689655172376e-01 0 
0.00000000000000000e+00 0.00000000000000000e+00 0 
0.00000000000000000e+00 7.93103448275862100e-01 0 
3.44827586206896547e-02 7.93103448275862100e-01 0 
6.89655172413793094e-02 7.93103448275862100e-01 0 
1.03448275862068964e-01 7.93103448275862100e-01 0 
1.37931034482758619e-01 7.93103448275862100e-01 0 
1.72413793103448287e-01 7.93103448275862100e-01 0 
2.06896551724137928e-01 7.93103448275862100e-01 0 
2.41379310344827569e-01 7.93103448275862100e-01 0 
2.75862068965517238e-01 7.93103448275862100e-01 0 
3.10344827586206906e-01 7.93103448275862100e-01 0 
3.44827586206896575e-01 7.93103448275862100e-01 0 
3.79310344827586188e-01 7.93103448275862100e-01 0 
4.13793103448275856e-01 7.93103448275862100e-01 0 
4.48275862068965525e-01 7.93103448275862100e-01 0 
4.82758620689655138e-01 7.93103448275862100e-01 0 
0.00000000000000000e+00 0.00000000000000000e+00 0 
0.00000000000000000e+00 8.27586206896551713e-01 0 
3.44827586206896547e-02 8.27586206896551713e-01 0 
6.89655172413793094e-02 8.27586206896551713e-01 0 
1.03448275862068964e-01 8.27586206896551713e-01 0 
1.37931034482758619e-01 8.27586206896551713e-01 0 
1.72413793103448287e-01 8.27586206896551713e-01 0 
2.06896551724137928e-01 8.27586206896551713e-01 0 
2.41379310344827569e-01 8.27586206896551713e-01 0 
2.75862068965517238e-01 8.27586206896551713e-01 0 
3.10344827586206906e-01 8.27586206896551713e-01 0 
3.44827586206896575e-01 8.27586206896551713e-01 0 
3.79310344827586188e-01 8.27586206896551713e-01 0 
4.13793103448275856e-01 8.27586206896551713e-01 0 
4.48275862068965525e-01 8.27586206896551713e-01 0 
4.82758620689655138e-01 8.27586206896551713e-01 0 
0.00000000000000000e+00 0.00000000000000000e+00 0 
0.00000000000000000e+00 8.62068965517241326e-01 0 
3.44827586206896547e-02 8.62068965517241326e-01 0 
6.89655172413793094e-02 8.62068965517241326e-01 0 
1.03448275862068964e-01 8.62068965517241326e-01 0 
1.37931034482758619e-01 8.62068965517241326e-01 0 
1.72413793103448287e-01 8.62068965517241326e-01 0 
2.06896551724137928e-01 8.62068965517241326e-01 0 
2.41379310344827569e-01 8.62068965517241326e-01 0 
2.75862068965517238e-01 8.62068965517241326e-01 0 
3.10344827586206906e-01 8.62068965517241326e-01 0 
3.44827586206896575e-01 8.62068965517241326e-01 0 
3.79310344827586188e-01 8.62068965517241326e-01 0 
4.13793103448275856e-01 8.62068965517241326e-01 0 
4.48275862068965525e-01 8.62068965517241326e-01 0 
4.82758620689655138e-01 8.62068965517241326e-01 0 
0.00000000000000000e+00 0.00000000000000000e+00 0 
0.00000000000000000e+00 8.96551724137931050e-01 0 
3.44827586206896547e-02 8.96551724137931050e-01 0 
6.89655172413793094e-02 8.96551724137931050e-01 0 
1.03448275862068964e-01 8.96551724137931050e-01 0 
1.37931034482758619e-01 8.96551724137931050e-01 0 
1.72413793103448287e-01 8.96551724137931050e-01 0 
2.06896551724137928e-01 8.96551724137931050e-01 0 
2.41379310344827569e-01 8.96551724137931050e-01 0 
2.75862068965517238e-01 8.96551724137931050e-01 0 
3.10344827586206906e-01 8.96551724137931050e-01 0 
3.44827586206896575e-01 8.96551724137931050e-01 0 
3.79310344827586188e-01 8.96551724137931050e-01 0 
4.13793103448275856e-01 8.96551724137931050e-01 0 
4.48275862068965525e-01 8.96551724137931050e-01 0 
4.82758620689655138e-01 8.96551724137931050e-01 0 
0.00000000000000000e+00 0.00000000000000000e+00 0 
0.00000000000000000e+00 9.31034482758620663e-01 0 
3.44827586206896547e-02 9.31034482758620663e-01 0 
6.89655172413793094e-02 9.31034482758620663e-01 0 
1.03448275862068964e-01 9.31034482758620663e-01 0 
1.37931034482758619e-01 9.31034482758620663e-01 0 
1.72413793103448287e-01 9.31034482758620663e-01 0 
2.06896551724137928e-01 9.31034482758620663e-01 0 
2.41379310344827569e-01 9.31034482758620663e-01 0 
2.75862068965517238e-01 9.31034482758620663e-01 0 
3.10344827586206906e-01 9.31034482758620663e-01 0 
3.44827586206896575e-01 9.31034482758620663e-01 0 
3.79310344827586188e-01 9.31034482758620663e-01 0 
4.13793103448275856e-01 9.31034482758620663e-01 0 
4.48275862068965525e-01 9.31034482758620663e-01 0 
4.82758620689655138e-01 9.31034482758620663e-01 0 
0.00000000000000000e+00 0.00000000000000000e+00 0 
0.00000000000000000e+00 9.65517241379310276e-01 0 
3.44827586206896547e-02 9.65517241379310276e-01 0 
6.89655172413793094e-02 9.65517241379310276e-01 0 
1.03448275862068964e-01 9.65517241379310276e-01 0 
1.37931034482758619e-01 9.65517241379310276e-01 0 
1.72413793103448287e-01 9.65517241379310276e-01 0 
2.06896551724137928e-01 9.65517241379310276e-01 0 
2.41379310344827569e-01 9.65517241379310276e-01 0 
2.75862068965517238e-01 9.65517241379310276e-01 0 
3.10344827586206906e-01 9.65517241379310276e-01 0 
3.44827586206896575e-01 9.65517241379310276e-01 0 
3.79310344827586188e-01 9.65517241379310276e-01 0 
4.13793103448275856e-01 9.65517241379310276e-01 0 
4.48275862068965525e-01 9.65517241379310276e-01 0 
4.82758620689655138e-01 9.65517241379310276e-01 0 
0.00000000000000000e+00 0.00000000000000000e+00 0 
0.00000000000000000e+00 1.00000000000000000e+00 0 
3.44827586206896547e-02 1.00000000000000000e+00 0 
6.89655172413793094e-02 1.00000000000000000e+00 0 
1.03448275862068964e-01 1.00000000000000000e+00 0 
1.37931034482758619e-01 1.00000000000000000e+00 0 
1.72413793103448287e-01 1.00000000000000000e+00 0 
2.06896551724137928e-01 1.00000000000000000e+00 0 
2.41379310344827569e-01 1.00000000000000000e+00 0 
2.75862068965517238e-01 1.00000000000000000e+00 0 
3.10344827586206906e-01 1.00000000000000000e+00 0 
3.44827586206896575e-01 1.00000000000000000e+00 0 
3.79310344827586188e-01 1.00000000000000000e+00 0 
4.13793103448275856e-01 1.00000000000000000e+00 0 
4.48275862068965525e-01 1.00000000000000000e+00 0 
4.82758620689655138e-01 1.00000000000000000e+00 0 
0.00000000000000000e+00 0.00000000000000000e+00 0 
</DataArray>
</Points>
<PointData>
<DataArray type="Float64" Name="heat" NumberOfComponents="1" format="ascii">
0.00000000000000000e+00
0.00000000000000000e+00
0.00000000000000000e+00
0.00000000000000000e+00
0.00000000000000000e+00
0.00000000000000000e+00
0.00000000000000000e+00
0.00000000000000000e+00
0.00000000000000000e+00
0.00000000000000000e+00
0.00000000000000000e+00
0.00000000000000000e+00
0.00000000000000000e+00
0.00000000000000000e+00
0.00000000000000000e+00
0.00000000000000000e+00
4.73507728894173407e+00
4.73626634958383086e+00
4.73983353151010345e+00
4.74577883472056694e+00
4.75410225921521779e+00
4.76480380499405420e+00
4.77788347205707886e+00
4.79334126040428199e+00
4.81117717003566980e+00
4.83139120095124941e+00
4.85398335315100748e+00
4.87895362663495558e+00
4.90630202140308835e+00
4.93602853745540937e+00
4.96813317479191419e+00
0.00000000000000000e+00
4.80879904875148068e+00
4.80998810939357924e+00
4.81355529131985715e+00
4.81950059453032420e+00
4.82782401902497593e+00
4.83852556480380702e+00
4.85160523186682546e+00
4.86706302021403303e+00
4.88489892984541729e+00
4.90511296076099956e+00
4.92770511296076386e+00
4.95267538644470484e+00
4.98002378121283851e+00
5.00975029726516041e+00
5.04185493460166612e+00
0.00000000000000000e+00
4.88727705112961175e+00
4.88846611177170054e+00
4.89203329369797668e+00
4.89797859690844017e+00
4.90630202140309102e+00
4.91700356718192300e+00
4.93008323424495032e+00
4.94554102259214901e+00
4.96337693222354392e+00
4.98359096313912087e+00
5.00618311533887983e+00
5.03115338882282970e+00
5.05850178359096248e+00
5.08822829964327994e+00
5.12033293697978564e+00
0.00000000000000000e+00
4.97051129607609798e+00
4.97170035671819033e+00
4.97526753864447446e+00
4.98121284185493618e+00
4.98953626634958169e+00
5.00023781212842255e+00
5.01331747919143833e+00
5.02877526753864501e+00
5.04661117717003194e+00
5.06682520808561243e+00
5.08941736028537228e+00
5.11438763376931949e+00
5.14173602853745138e+00
5.17146254458977417e+00
5.20356718192627543e+00
0.00000000000000000e+00
5.05850178359095892e+00
5.05969084423305926e+00
5.06325802615933540e+00
5.06920332936980156e+00
5.07752675386444796e+00
5.08822829964327816e+00
5.10130796670629749e+00
5.11676575505350506e+00
5.13460166468489643e+00
5.15481569560047426e+00
5.17740784780023677e+00
5.20237812128418486e+00
5.22972651605231764e+00
5.25945303210463511e+00
5.29155766944114436e+00
0.00000000000000000e+00
5.15124851367419101e+00
5.15243757431629135e+00
5.15600475624257015e+00
5.16195005945303098e+00
5.17027348394768538e+00
5.18097502972651913e+00
5.19405469678953846e+00
5.20951248513674336e+00
5.22734839476813473e+00
5.24756242568370990e+00
5.27015457788347330e+00
5.29512485136742317e+00
5.32247324613555595e+00
5.35219976218786808e+00
5.38430439952437467e+00
0.00000000000000000e+00
5.24875148632579869e+00
5.24994054696789281e+00
5.25350772889417783e+00
5.25945303210463688e+00
5.26777645659928861e+00
5.27847800237811793e+00
5.29155766944113992e+00
5.30701545778834838e+00
5.32485136741973086e+00
5.34506539833530958e+00
5.36765755053508098e+00
5.39262782401902907e+00
5.41997621878716274e+00
5.44970273483947576e+00
5.48180737217597258e+00
0.00000000000000000e+00
5.35101070154577751e+00
5.35219976218786986e+00
5.35576694411415222e+00
5.36171224732461571e+00
5.37003567181926478e+00
5.38073721759809942e+00
5.39381688466111697e+00
5.40927467300832365e+00
5.42711058263971946e+00
5.44732461355529107e+00
5.46991676575505714e+00
5.49488703923900257e+00
5.52223543400713357e+00
5.55196195005945281e+00
5.58406658739595407e+00
0.00000000000000000e+00
5.45802615933412660e+00
5.45921521997621451e+00
5.46278240190249864e+00
5.46872770511296125e+00
5.47705112960761031e+00
5.48775267538644584e+00
5.50083234244946517e+00
5.51629013079666652e+00
5.53412604042805967e+00
5.55434007134363839e+00
5.57693222354340445e+00
5.60190249702734633e+00
5.62925089179548266e+00
5.65897740784779923e+00
5.69108204518430405e+00
0.00000000000000000e+00
5.56979785969084062e+00
5.57098692033294007e+00
5.57455410225921355e+00
5.58049940546967971e+00
5.58882282996432878e+00
5.59952437574315631e+00
5.61260404280618275e+00
5.62806183115338854e+00
5.64589774078478168e+00
5.66611177170035951e+00
5.68870392390011759e+00
5.71367419738407012e+00
5.74102259215219846e+00
5.77074910820451326e+00
5.80285374554102340e+00
0.00000000000000000e+00
5.68632580261593024e+00
5.68751486325802791e+00
5.69108204518430405e+00
5.69702734839476843e+00
5.70535077288941572e+00
5.71605231866825303e+00
5.72913198573127058e+00
5.74458977407848081e+00
5.76242568370986774e+00
5.78263971462544291e+00
5.80523186682521164e+00
5.83020214030915707e+00
5.85755053507728540e+00
5.88727705112960997e+00
5.91938168846611124e+00
0.00000000000000000e+00
5.80760998810939366e+00
5.80879904875148512e+00
5.81236623067776215e+00
5.81831153388823363e+00
5.82663495838287293e+00
5.83733650416171113e+00
5.85041617122473312e+00
5.86587395957193625e+00
5.88370986920332673e+00
5.90392390011890633e+00
5.92651605231866352e+00
5.95148632580261516e+00
5.97883472057075238e+00
6.00856123662307073e+00
6.04066587395957200e+00
0.00000000000000000e+00
5.93365041617122024e+00
5.93483947681331614e+00
5.93840665873959672e+00
5.94435196195006110e+00
5.95267538644470751e+00
5.96337693222354481e+00
5.97645659928656681e+00
5.99191438763377082e+00
6.00975029726516397e+00
6.02996432818073469e+00
6.05255648038049454e+00
6.07752675386444796e+00
6.10487514863257630e+00
6.13460166468489820e+00
6.16670630202139947e+00
0.00000000000000000e+00
6.06444708680142242e+00
6.06563614744352009e+00
6.06920332936979801e+00
6.07514863258026594e+00
6.08347205707491501e+00
6.09417360285374343e+00
6.10725326991676098e+00
6.12271105826397211e+00
6.14054696789536525e+00
6.16076099881093864e+00
6.18335315101069760e+00
6.20832342449464925e+00
6.23567181926278469e+00
6.26539833531510215e+00
6.29750297265160253e+00
0.00000000000000000e+00
6.20000000000000107e+00
6.20118906064209341e+00
6.20475624256836333e+00
6.21070154577883393e+00
6.21902497027347678e+00
6.22972651605231231e+00
6.24280618311533964e+00
6.25826397146254365e+00
6.27609988109392702e+00
6.29631391200950929e+00
6.31890606420927181e+00
6.34387633769321724e+00
6.37122473246135446e+00
6.40095124851367281e+00
6.43305588585017674e+00
0.00000000000000000e+00
</DataArray>
</PointData>
</Piece>
</StructuredGrid>
</VTKFile>
