<?xml version="1.0"?>
<VTKFile type="StructuredGrid">
<StructuredGrid WholeExtent="14 29 14 29 0 0 ">
<Piece Extent="14 29 14 29 0 0 ">
<Points>
<DataArray type="Float64" Name="coordinate" NumberOfComponents="3" format="ascii">
0.00000000000000000e+00 0.00000000000000000e+00 0 
0.00000000000000000e+00 0.00000000000000000e+00 0 
0.00000000000000000e+00 0.00000000000000000e+00 0 
0.00000000000000000e+00 0.00000000000000000e+00 0 
0.00000000000000000e+00 0.00000000000000000e+00 0 
0.00000000000000000e+00 0.00000000000000000e+00 0 
0.00000000000000000e+00 0.00000000000000000e+00 0 
0.00000000000000000e+00 0.00000000000000000e+00 0 
0.00000000000000000e+00 0.00000000000000000e+00 0 
0.00000000000000000e+00 0.00000000000000000e+00 0 
0.00000000000000000e+00 0.00000000000000000e+00 0 
0.00000000000000000e+00 0.00000000000000000e+00 0 
0.00000000000000000e+00 0.00000000000000000e+00 0 
0.00000000000000000e+00 0.00000000000000000e+00 0 
0.00000000000000000e+00 0.00000000000000000e+00 0 
0.00000000000000000e+00 0.00000000000000000e+00 0 
0.00000000000000000e+00 0.00000000000000000e+00 0 
5.17241379310344862e-01 5.17241379310344862e-01 0 
5.51724137931034475e-01 5.17241379310344862e-01 0 
5.86206896551724088e-01 5.17241379310344862e-01 0 
6.20689655172413812e-01 5.17241379310344862e-01 0 
6.55172413793103425e-01 5.17241379310344862e-01 0 
6.89655172413793149e-01 5.17241379310344862e-01 0 
7.24137931034482762e-01 5.17241379310344862e-01 0 
7.58620689655172376e-01 5.17241379310344862e-01 0 
7.93103448275862100e-01 5.17241379310344862e-01 0 
8.27586206896551713e-01 5.17241379310344862e-01 0 
8.62068965517241326e-01 5.17241379310344862e-01 0 
8.96551724137931050e-01 5.17241379310344862e-01 0 
9.31034482758620663e-01 5.17241379310344862e-01 0 
9.65517241379310276e-01 5.17241379310344862e-01 0 
1.00000000000000000e+00 5.17241379310344862e-01 0 
0.00000000000000000e+00 0.00000000000000000e+00 0 
5.17241379310344862e-01 5.51724137931034475e-01 0 
5.51724137931034475e-01 5.51724137931034475e-01 0 
5.86206896551724088e-01 5.51724137931034475e-01 0 
6.20689655172413812e-01 5.51724137931034475e-01 0 
6.55172413793103425e-01 5.51724137931034475e-01 0 
6.89655172413793149e-01 5.51724137931034475e-01 0 
7.24137931034482762e-01 5.51724137931034475e-01 0 
7.58620689655172376e-01 5.51724137931034475e-01 0 
7.93103448275862100e-01 5.51724137931034475e-01 0 
8.27586206896551713e-01 5.51724137931034475e-01 0 
8.62068965517241326e-01 5.51724137931034475e-01 0 
8.96551724137931050e-01 5.51724137931034475e-01 0 
9.31034482758620663e-01 5.51724137931034475e-01 0 
9.65517241379310276e-01 5.51724137931034475e-01 0 
1.00000000000000000e+00 5.51724137931034475e-01 0 
0.00000000000000000e+00 0.00000000000000000e+00 0 
5.17241379310344862e-01 5.86206896551724088e-01 0 
5.51724137931034475e-01 5.86206896551724088e-01 0 
5.86206896551724088e-01 5.86206896551724088e-01 0 
6.20689655172413812e-01 5.86206896551724088e-01 0 
6.55172413793103425e-01 5.86206896551724088e-01 0 
6.89655172413793149e-01 5.86206896551724088e-01 0 
7.24137931034482762e-01 5.86206896551724088e-01 0 
7.58620689655172376e-01 5.86206896551724088e-01 0 
7.93103448275862100e-01 5.86206896551724088e-01 0 
8.27586206896551713e-01 5.86206896551724088e-01 0 
8.62068965517241326e-01 5.86206896551724088e-01 0 
8.96551724137931050e-01 5.86206896551724088e-01 0 
9.31034482758620663e-01 5.86206896551724088e-01 0 
9.65517241379310276e-01 5.86206896551724088e-01 0 
1.00000000000000000e+00 5.86206896551724088e-01 0 
0.00000000000000000e+00 0.00000000000000000e+00 0 
5.17241379310344862e-01 6.20689655172413812e-01 0 
5.51724137931034475e-01 6.20689655172413812e-01 0 
5.86206896551724088e-01 6.20689655172413812e-01 0 
6.20689655172413812e-01 6.20689655172413812e-01 0 
6.55172413793103425e-01 6.20689655172413812e-01 0 
6.89655172413793149e-01 6.20689655172413812e-01 0 
7.24137931034482762e-01 6.20689655172413812e-01 0 
7.58620689655172376e-01 6.20689655172413812e-01 0 
7.93103448275862100e-01 6.20689655172413812e-01 0 
8.27586206896551713e-01 6.20689655172413812e-01 0 
8.62068965517241326e-01 6.20689655172413812e-01 0 
8.96551724137931050e-01 6.20689655172413812e-01 0 
9.31034482758620663e-01 6.20689655172413812e-01 0 
9.65517241379310276e-01 6.20689655172413812e-01 0 
1.00000000000000000e+00 6.20689655172413812e-01 0 
0.00000000000000000e+00 0.00000000000000000e+00 0 
5.17241379310344862e-01 6.55172413793103425e-01 0 
5.51724137931034475e-01 6.55172413793103425e-01 0 
5.86206896551724088e-01 6.55172413793103425e-01 0 
6.20689655172413812e-01 6.55172413793103425e-01 0 
6.55172413793103425e-01 6.55172413793103425e-01 0 
6.89655172413793149e-01 6.55172413793103425e-01 0 
7.24137931034482762e-01 6.55172413793103425e-01 0 
7.58620689655172376e-01 6.55172413793103425e-01 0 
7.93103448275862100e-01 6.55172413793103425e-01 0 
8.27586206896551713e-01 6.55172413793103425e-01 0 
8.62068965517241326e-01 6.55172413793103425e-01 0 
8.96551724137931050e-01 6.55172413793103425e-01 0 
9.31034482758620663e-01 6.55172413793103425e-01 0 
9.65517241379310276e-01 6.55172413793103425e-01 0 
1.00000000000000000e+00 6.55172413793103425e-01 0 
0.00000000000000000e+00 0.00000000000000000e+00 0 
5.17241379310344862e-01 6.89655172413793149e-01 0 
5.51724137931034475e-01 6.89655172413793149e-01 0 
5.86206896551724088e-01 6.89655172413793149e-01 0 
6.20689655172413812e-01 6.89655172413793149e-01 0 
6.55172413793103425e-01 6.89655172413793149e-01 0 
6.89655172413793149e-01 6.89655172413793149e-01 0 
7.24137931034482762e-01 6.89655172413793149e-01 0 
7.58620689655172376e-01 6.89655172413793149e-01 0 
7.93103448275862100e-01 6.89655172413793149e-01 0 
8.27586206896551713e-01 6.89655172413793149e-01 0 
8.62068965517241326e-01 6.89655172413793149e-01 0 
8.96551724137931050e-01 6.89655172413793149e-01 0 
9.31034482758620663e-01 6.89655172413793149e-01 0 
9.65517241379310276e-01 6.89655172413793149e-01 0 
1.00000000000000000e+00 6.89655172413793149e-01 0 
0.00000000000000000e+00 0.00000000000000000e+00 0 
5.17241379310344862e-01 7.24137931034482762e-01 0 
5.51724137931034475e-01 7.24137931034482762e-01 0 
5.86206896551724088e-01 7.24137931034482762e-01 0 
6.20689655172413812e-01 7.24137931034482762e-01 0 
6.55172413793103425e-01 7.24137931034482762e-01 0 
6.89655172413793149e-01 7.24137931034482762e-01 0 
7.24137931034482762e-01 7.24137931034482762e-01 0 
7.58620689655172376e-01 7.24137931034482762e-01 0 
7.93103448275862100e-01 7.24137931034482762e-01 0 
8.27586206896551713e-01 7.24137931034482762e-01 0 
8.62068965517241326e-01 7.24137931034482762e-01 0 
8.96551724137931050e-01 7.24137931034482762e-01 0 
9.31034482758620663e-01 7.24137931034482762e-01 0 
9.65517241379310276e-01 7.24137931034482762e-01 0 
1.00000000000000000e+00 7.24137931034482762e-01 0 
0.00000000000000000e+00 0.00000000000000000e+00 0 
5.17241379310344862e-01 7.58620689655172376e-01 0 
5.51724137931034475e-01 7.58620689655172376e-01 0 
5.86206896551724088e-01 7.58620689655172376e-01 0 
6.20689655172413812e-01 7.58620689655172376e-01 0 
6.55172413793103425e-01 7.58620689655172376e-01 0 
6.89655172413793149e-01 7.58620689655172376e-01 0 
7.24137931034482762e-01 7.58620689655172376e-01 0 
7.58620689655172376e-01 7.58620689655172376e-01 0 
7.93103448275862100e-01 7.58620689655172376e-01 0 
8.27586206896551713e-01 7.58620689655172376e-01 0 
8.62068965517241326e-01 7.58620689655172376e-01 0 
8.96551724137931050e-01 7.58620689655172376e-01 0 
9.31034482758620663e-01 7.58620689655172376e-01 0 
9.65517241379310276e-01 7.58620689655172376e-01 0 
1.00000000000000000e+00 7.58620689655172376e-01 0 
0.00000000000000000e+00 0.00000000000000000e+00 0 
5.17241379310344862e-01 7.93103448275862100e-01 0 
5.51724137931034475e-01 7.93103448275862100e-01 0 
5.86206896551724088e-01 7.93103448275862100e-01 0 
6.20689655172413812e-01 7.93103448275862100e-01 0 
6.55172413793103425e-01 7.93103448275862100e-01 0 
6.89655172413793149e-01 7.93103448275862100e-01 0 
7.24137931034482762e-01 7.93103448275862100e-01 0 
7.58620689655172376e-01 7.93103448275862100e-01 0 
7.93103448275862100e-01 7.93103448275862100e-01 0 
8.27586206896551713e-01 7.93103448275862100e-01 0 
8.62068965517241326e-01 7.93103448275862100e-01 0 
8.96551724137931050e-01 7.93103448275862100e-01 0 
9.31034482758620663e-01 7.93103448275862100e-01 0 
9.65517241379310276e-01 7.93103448275862100e-01 0 
1.00000000000000000e+00 7.93103448275862100e-01 0 
0.00000000000000000e+00 0.00000000000000000e+00 0 
5.17241379310344862e-01 8.27586206896551713e-01 0 
5.51724137931034475e-01 8.27586206896551713e-01 0 
5.86206896551724088e-01 8.27586206896551713e-01 0 
6.20689655172413812e-01 8.27586206896551713e-01 0 
6.55172413793103425e-01 8.27586206896551713e-01 0 
6.89655172413793149e-01 8.27586206896551713e-01 0 
7.24137931034482762e-01 8.27586206896551713e-01 0 
7.58620689655172376e-01 8.27586206896551713e-01 0 
7.93103448275862100e-01 8.27586206896551713e-01 0 
8.27586206896551713e-01 8.27586206896551713e-01 0 
8.62068965517241326e-01 8.27586206896551713e-01 0 
8.96551724137931050e-01 8.27586206896551713e-01 0 
9.31034482758620663e-01 8.27586206896551713e-01 0 
9.65517241379310276e-01 8.27586206896551713e-01 0 
1.00000000000000000e+00 8.27586206896551713e-01 0 
0.00000000000000000e+00 0.00000000000000000e+00 0 
5.17241379310344862e-01 8.62068965517241326e-01 0 
5.51724137931034475e-01 8.62068965517241326e-01 0 
5.86206896551724088e-01 8.62068965517241326e-01 0 
6.20689655172413812e-01 8.62068965517241326e-01 0 
6.55172413793103425e-01 8.62068965517241326e-01 0 
6.89655172413793149e-01 8.62068965517241326e-01 0 
7.24137931034482762e-01 8.62068965517241326e-01 0 
7.58620689655172376e-01 8.62068965517241326e-01 0 
7.93103448275862100e-01 8.62068965517241326e-01 0 
8.27586206896551713e-01 8.62068965517241326e-01 0 
8.62068965517241326e-01 8.62068965517241326e-01 0 
8.96551724137931050e-01 8.62068965517241326e-01 0 
9.31034482758620663e-01 8.62068965517241326e-01 0 
9.65517241379310276e-01 8.62068965517241326e-01 0 
1.00000000000000000e+00 8.62068965517241326e-01 0 
0.00000000000000000e+00 0.00000000000000000e+00 0 
5.17241379310344862e-01 8.96551724137931050e-01 0 
5.51724137931034475e-01 8.96551724137931050e-01 0 
5.86206896551724088e-01 8.96551724137931050e-01 0 
6.20689655172413812e-01 8.96551724137931050e-01 0 
6.55172413793103425e-01 8.96551724137931050e-01 0 
6.89655172413793149e-01 8.96551724137931050e-01 0 
7.24137931034482762e-01 8.96551724137931050e-01 0 
7.58620689655172376e-01 8.96551724137931050e-01 0 
7.93103448275862100e-01 8.96551724137931050e-01 0 
8.27586206896551713e-01 8.96551724137931050e-01 0 
8.62068965517241326e-01 8.96551724137931050e-01 0 
8.96551724137931050e-01 8.96551724137931050e-01 0 
9.31034482758620663e-01 8.96551724137931050e-01 0 
9.65517241379310276e-01 8.96551724137931050e-01 0 
1.00000000000000000e+00 8.96551724137931050e-01 0 
0.00000000000000000e+00 0.00000000000000000e+00 0 
5.17241379310344862e-01 9.31034482758620663e-01 0 
5.51724137931034475e-01 9.31034482758620663e-01 0 
5.86206896551724088e-01 9.31034482758620663e-01 0 
6.20689655172413812e-01 9.31034482758620663e-01 0 
6.55172413793103425e-01 9.31034482758620663e-01 0 
6.89655172413793149e-01 9.31034482758620663e-01 0 
7.24137931034482762e-01 9.31034482758620663e-01 0 
7.58620689655172376e-01 9.31034482758620663e-01 0 
7.93103448275862100e-01 9.31034482758620663e-01 0 
8.27586206896551713e-01 9.31034482758620663e-01 0 
8.62068965517241326e-01 9.31034482758620663e-01 0 
8.96551724137931050e-01 9.31034482758620663e-01 0 
9.31034482758620663e-01 9.31034482758620663e-01 0 
9.65517241379310276e-01 9.31034482758620663e-01 0 
1.00000000000000000e+00 9.31034482758620663e-01 0 
0.00000000000000000e+00 0.00000000000000000e+00 0 
5.17241379310344862e-01 9.65517241379310276e-01 0 
5.51724137931034475e-01 9.65517241379310276e-01 0 
5.86206896551724088e-01 9.65517241379310276e-01 0 
6.20689655172413812e-01 9.65517241379310276e-01 0 
6.55172413793103425e-01 9.65517241379310276e-01 0 
6.89655172413793149e-01 9.65517241379310276e-01 0 
7.24137931034482762e-01 9.65517241379310276e-01 0 
7.58620689655172376e-01 9.65517241379310276e-01 0 
7.93103448275862100e-01 9.65517241379310276e-01 0 
8.27586206896551713e-01 9.65517241379310276e-01 0 
8.62068965517241326e-01 9.65517241379310276e-01 0 
8.96551724137931050e-01 9.65517241379310276e-01 0 
9.31034482758620663e-01 9.65517241379310276e-01 0 
9.65517241379310276e-01 9.65517241379310276e-01 0 
1.00000000000000000e+00 9.65517241379310276e-01 0 
0.00000000000000000e+00 0.00000000000000000e+00 0 
5.17241379310344862e-01 1.00000000000000000e+00 0 
5.51724137931034475e-01 1.00000000000000000e+00 0 
5.86206896551724088e-01 1.00000000000000000e+00 0 
6.20689655172413812e-01 1.00000000000000000e+00 0 
6.55172413793103425e-01 1.00000000000000000e+00 0 
6.89655172413793149e-01 1.00000000000000000e+00 0 
7.24137931034482762e-01 1.00000000000000000e+00 0 
7.58620689655172376e-01 1.00000000000000000e+00 0 
7.93103448275862100e-01 1.00000000000000000e+00 0 
8.27586206896551713e-01 1.00000000000000000e+00 0 
8.62068965517241326e-01 1.00000000000000000e+00 0 
8.96551724137931050e-01 1.00000000000000000e+00 0 
9.31034482758620663e-01 1.00000000000000000e+00 0 
9.65517241379310276e-01 1.00000000000000000e+00 0 
1.00000000000000000e+00 1.00000000000000000e+00 0 
</DataArray>
</Points>
<PointData>
<DataArray type="Float64" Name="heat" NumberOfComponents="1" format="ascii">
0.00000000000000000e+00
0.00000000000000000e+00
0.00000000000000000e+00
0.00000000000000000e+00
0.00000000000000000e+00
0.00000000000000000e+00
0.00000000000000000e+00
0.00000000000000000e+00
0.00000000000000000e+00
0.00000000000000000e+00
0.00000000000000000e+00
0.00000000000000000e+00
0.00000000000000000e+00
0.00000000000000000e+00
0.00000000000000000e+00
0.00000000000000000e+00
0.00000000000000000e+00
3.80261593341260307e+00
3.83947681331747903e+00
3.87871581450653968e+00
3.92033293697978724e+00
3.96432818073721904e+00
4.01070154577883820e+00
4.05945303210463670e+00
4.11058263971463056e+00
4.16409036860880022e+00
4.21997621878715901e+00
4.27824019024970426e+00
4.33888228299643330e+00
4.40190249702735059e+00
4.46730083234244812e+00
4.53507728894173301e+00
0.00000000000000000e+00
3.87633769322235278e+00
3.91319857312722919e+00
3.95243757431629028e+00
3.99405469678953873e+00
4.03804994054696653e+00
4.08442330558858568e+00
4.13317479191438686e+00
4.18430439952437716e+00
4.23781212841854416e+00
4.29369797859690649e+00
4.35196195005945174e+00
4.41260404280618346e+00
4.47562425683709986e+00
4.54102259215220005e+00
4.60879904875148139e+00
0.00000000000000000e+00
3.95481569560047896e+00
3.99167657550534960e+00
4.03091557669441158e+00
4.07253269916765870e+00
4.11652794292509316e+00
4.16290130796670788e+00
4.21165279429250727e+00
4.26278240190249846e+00
4.31629013079666457e+00
4.37217598097503402e+00
4.43043995243757749e+00
4.49108204518430121e+00
4.55410225921522116e+00
4.61950059453032491e+00
4.68727705112960535e+00
0.00000000000000000e+00
4.03804994054697008e+00
4.07491082045184250e+00
4.11414982164090492e+00
4.15576694411415293e+00
4.19976218787158118e+00
4.24613555291320033e+00
4.29488703923899973e+00
4.34601664684899092e+00
4.39952437574315969e+00
4.45541022592152380e+00
4.51367419738406994e+00
4.57431629013080077e+00
4.63733650416171184e+00
4.70273483947681559e+00
4.77051129607609692e+00
0.00000000000000000e+00
4.12604042806182836e+00
4.16290130796670521e+00
4.20214030915576586e+00
4.24375743162901387e+00
4.28775267538644567e+00
4.33412604042805771e+00
4.38287752675386422e+00
4.43400713436384919e+00
4.48751486325802684e+00
4.54340071343638296e+00
4.60166468489893266e+00
4.66230677764565904e+00
4.72532699167657455e+00
4.79072532699168274e+00
4.85850178359096052e+00
0.00000000000000000e+00
4.21878715814506666e+00
4.25564803804994174e+00
4.29488703923899884e+00
4.33650416171224684e+00
4.38049940546967420e+00
4.42687277051129602e+00
4.47562425683709986e+00
4.52675386444708661e+00
4.58026159334125804e+00
4.63614744351961772e+00
4.69441141498216741e+00
4.75505350772889468e+00
4.81807372175981286e+00
4.88347205707491216e+00
4.95124851367419527e+00
0.00000000000000000e+00
4.31629013079666901e+00
4.35315101070154764e+00
4.39239001189060563e+00
4.43400713436385807e+00
4.47800237812128366e+00
4.52437574316290192e+00
4.57312722948870309e+00
4.62425683709869695e+00
4.67776456599286394e+00
4.73365041617121918e+00
4.79191438763377153e+00
4.85255648038050236e+00
4.91557669441141520e+00
4.98097502972651984e+00
5.04875148632579851e+00
0.00000000000000000e+00
4.41854934601664606e+00
4.45541022592151936e+00
4.49464922711058179e+00
4.53626634958382624e+00
4.58026159334126159e+00
4.62663495838287719e+00
4.67538644470868103e+00
4.72651605231866778e+00
4.78002378121283833e+00
4.83590963139119889e+00
4.89417360285374770e+00
4.95481569560047941e+00
5.01783590963139403e+00
5.08323424494648979e+00
5.15101070154577734e+00
0.00000000000000000e+00
4.52556480380499426e+00
4.56242568370987023e+00
4.60166468489893443e+00
4.64328180737217178e+00
4.68727705112960624e+00
4.73365041617122184e+00
4.78240190249702657e+00
4.83353151010701509e+00
4.88703923900118564e+00
4.94292508917955153e+00
5.00118906064209323e+00
5.06183115338882228e+00
5.12485136741974046e+00
5.19024970273484421e+00
5.25802615933412465e+00
0.00000000000000000e+00
4.63733650416171006e+00
4.67419738406658603e+00
4.71343638525564756e+00
4.75505350772889201e+00
4.79904875148632470e+00
4.84542211652794652e+00
4.89417360285374770e+00
4.94530321046373267e+00
4.99881093935790144e+00
5.05469678953626200e+00
5.11296076099880814e+00
5.17360285374553808e+00
5.23662306777645625e+00
5.30202140309155912e+00
5.36979785969083512e+00
0.00000000000000000e+00
4.75386444708680145e+00
4.79072532699167830e+00
4.82996432818073629e+00
4.87158145065397630e+00
4.91557669441141520e+00
4.96195005945303702e+00
5.01070154577883464e+00
5.06183115338882672e+00
5.11533888228299904e+00
5.17122473246135250e+00
5.22948870392390130e+00
5.29013079667062680e+00
5.35315101070154764e+00
5.41854934601664784e+00
5.48632580261593095e+00
0.00000000000000000e+00
4.87514863258026399e+00
4.91200951248513640e+00
4.95124851367419527e+00
4.99286563614744239e+00
5.03686087990487330e+00
5.08323424494648801e+00
5.13198573127229896e+00
5.18311533888228393e+00
5.23662306777645625e+00
5.29250891795481593e+00
5.35077288941735940e+00
5.41141498216409467e+00
5.47443519619500663e+00
5.53983353151010682e+00
5.60760998810938283e+00
0.00000000000000000e+00
5.00118906064208790e+00
5.03804994054696742e+00
5.07728894173602630e+00
5.11890606420926986e+00
5.16290130796670432e+00
5.20927467300832259e+00
5.25802615933412643e+00
5.30915576694411939e+00
5.36266349583828816e+00
5.41854934601665228e+00
5.47681331747919486e+00
5.53745541022592214e+00
5.60047562425683676e+00
5.66587395957193607e+00
5.73365041617122007e+00
0.00000000000000000e+00
5.13198573127229718e+00
5.16884661117716693e+00
5.20808561236623024e+00
5.24970273483948002e+00
5.29369797859690561e+00
5.34007134363852565e+00
5.38882282996433126e+00
5.43995243757431446e+00
5.49346016646849211e+00
5.54934601664684912e+00
5.60760998810939437e+00
5.66825208085612164e+00
5.73127229488704160e+00
5.79667063020213558e+00
5.86444708680142579e+00
0.00000000000000000e+00
5.26753864447086251e+00
5.30439952437573847e+00
5.34363852556480357e+00
5.38525564803804979e+00
5.42925089179547715e+00
5.47562425683709630e+00
5.52437574316289393e+00
5.57550535077287979e+00
5.62901307966705833e+00
5.68489892984541800e+00
5.74316290130796503e+00
5.80380499405469230e+00
5.86682520808561048e+00
5.93222354340071156e+00
5.99999999999999645e+00
</DataArray>
</PointData>
</Piece>
</StructuredGrid>
</VTKFile>
