<?xml version="1.0"?>
<VTKFile type="StructuredGrid">
<StructuredGrid WholeExtent="0 15 0 15 0 0 ">
<Piece Extent="0 15 0 15 0 0 ">
<Points>
<DataArray type="Float64" Name="coordinate" NumberOfComponents="3" format="ascii">
0.00000000000000000e+00 0.00000000000000000e+00 0 
3.44827586206896547e-02 0.00000000000000000e+00 0 
6.89655172413793094e-02 0.00000000000000000e+00 0 
1.03448275862068964e-01 0.00000000000000000e+00 0 
1.37931034482758619e-01 0.00000000000000000e+00 0 
1.72413793103448287e-01 0.00000000000000000e+00 0 
2.06896551724137928e-01 0.00000000000000000e+00 0 
2.41379310344827569e-01 0.00000000000000000e+00 0 
2.75862068965517238e-01 0.00000000000000000e+00 0 
3.10344827586206906e-01 0.00000000000000000e+00 0 
3.44827586206896575e-01 0.00000000000000000e+00 0 
3.79310344827586188e-01 0.00000000000000000e+00 0 
4.13793103448275856e-01 0.00000000000000000e+00 0 
4.48275862068965525e-01 0.00000000000000000e+00 0 
4.82758620689655138e-01 0.00000000000000000e+00 0 
0.00000000000000000e+00 0.00000000000000000e+00 0 
0.00000000000000000e+00 3.44827586206896547e-02 0 
3.44827586206896547e-02 3.44827586206896547e-02 0 
6.89655172413793094e-02 3.44827586206896547e-02 0 
1.03448275862068964e-01 3.44827586206896547e-02 0 
1.37931034482758619e-01 3.44827586206896547e-02 0 
1.72413793103448287e-01 3.44827586206896547e-02 0 
2.06896551724137928e-01 3.44827586206896547e-02 0 
2.41379310344827569e-01 3.44827586206896547e-02 0 
2.75862068965517238e-01 3.44827586206896547e-02 0 
3.10344827586206906e-01 3.44827586206896547e-02 0 
3.44827586206896575e-01 3.44827586206896547e-02 0 
3.79310344827586188e-01 3.44827586206896547e-02 0 
4.13793103448275856e-01 3.44827586206896547e-02 0 
4.48275862068965525e-01 3.44827586206896547e-02 0 
4.82758620689655138e-01 3.44827586206896547e-02 0 
0.00000000000000000e+00 0.00000000000000000e+00 0 
0.00000000000000000e+00 6.89655172413793094e-02 0 
3.44827586206896547e-02 6.89655172413793094e-02 0 
6.89655172413793094e-02 6.89655172413793094e-02 0 
1.03448275862068964e-01 6.89655172413793094e-02 0 
1.37931034482758619e-01 6.89655172413793094e-02 0 
1.72413793103448287e-01 6.89655172413793094e-02 0 
2.06896551724137928e-01 6.89655172413793094e-02 0 
2.41379310344827569e-01 6.89655172413793094e-02 0 
2.75862068965517238e-01 6.89655172413793094e-02 0 
3.10344827586206906e-01 6.89655172413793094e-02 0 
3.44827586206896575e-01 6.89655172413793094e-02 0 
3.79310344827586188e-01 6.89655172413793094e-02 0 
4.13793103448275856e-01 6.89655172413793094e-02 0 
4.48275862068965525e-01 6.89655172413793094e-02 0 
4.82758620689655138e-01 6.89655172413793094e-02 0 
0.00000000000000000e+00 0.00000000000000000e+00 0 
0.00000000000000000e+00 1.03448275862068964e-01 0 
3.44827586206896547e-02 1.03448275862068964e-01 0 
6.89655172413793094e-02 1.03448275862068964e-01 0 
1.03448275862068964e-01 1.03448275862068964e-01 0 
1.37931034482758619e-01 1.03448275862068964e-01 0 
1.72413793103448287e-01 1.03448275862068964e-01 0 
2.06896551724137928e-01 1.03448275862068964e-01 0 
2.41379310344827569e-01 1.03448275862068964e-01 0 
2.75862068965517238e-01 1.03448275862068964e-01 0 
3.10344827586206906e-01 1.03448275862068964e-01 0 
3.44827586206896575e-01 1.03448275862068964e-01 0 
3.79310344827586188e-01 1.03448275862068964e-01 0 
4.13793103448275856e-01 1.03448275862068964e-01 0 
4.48275862068965525e-01 1.03448275862068964e-01 0 
4.82758620689655138e-01 1.03448275862068964e-01 0 
0.00000000000000000e+00 0.00000000000000000e+00 0 
0.00000000000000000e+00 1.37931034482758619e-01 0 
3.44827586206896547e-02 1.37931034482758619e-01 0 
6.89655172413793094e-02 1.37931034482758619e-01 0 
1.03448275862068964e-01 1.37931034482758619e-01 0 
1.37931034482758619e-01 1.37931034482758619e-01 0 
1.72413793103448287e-01 1.37931034482758619e-01 0 
2.06896551724137928e-01 1.37931034482758619e-01 0 
2.41379310344827569e-01 1.37931034482758619e-01 0 
2.75862068965517238e-01 1.37931034482758619e-01 0 
3.10344827586206906e-01 1.37931034482758619e-01 0 
3.44827586206896575e-01 1.37931034482758619e-01 0 
3.79310344827586188e-01 1.37931034482758619e-01 0 
4.13793103448275856e-01 1.37931034482758619e-01 0 
4.48275862068965525e-01 1.37931034482758619e-01 0 
4.82758620689655138e-01 1.37931034482758619e-01 0 
0.00000000000000000e+00 0.00000000000000000e+00 0 
0.00000000000000000e+00 1.72413793103448287e-01 0 
3.44827586206896547e-02 1.72413793103448287e-01 0 
6.89655172413793094e-02 1.72413793103448287e-01 0 
1.03448275862068964e-01 1.72413793103448287e-01 0 
1.37931034482758619e-01 1.72413793103448287e-01 0 
1.72413793103448287e-01 1.72413793103448287e-01 0 
2.06896551724137928e-01 1.72413793103448287e-01 0 
2.41379310344827569e-01 1.72413793103448287e-01 0 
2.75862068965517238e-01 1.72413793103448287e-01 0 
3.10344827586206906e-01 1.72413793103448287e-01 0 
3.44827586206896575e-01 1.72413793103448287e-01 0 
3.79310344827586188e-01 1.72413793103448287e-01 0 
4.13793103448275856e-01 1.72413793103448287e-01 0 
4.48275862068965525e-01 1.72413793103448287e-01 0 
4.82758620689655138e-01 1.72413793103448287e-01 0 
0.00000000000000000e+00 0.00000000000000000e+00 0 
0.00000000000000000e+00 2.06896551724137928e-01 0 
3.44827586206896547e-02 2.06896551724137928e-01 0 
6.89655172413793094e-02 2.06896551724137928e-01 0 
1.03448275862068964e-01 2.06896551724137928e-01 0 
1.37931034482758619e-01 2.06896551724137928e-01 0 
1.72413793103448287e-01 2.06896551724137928e-01 0 
2.06896551724137928e-01 2.06896551724137928e-01 0 
2.41379310344827569e-01 2.06896551724137928e-01 0 
2.75862068965517238e-01 2.06896551724137928e-01 0 
3.10344827586206906e-01 2.06896551724137928e-01 0 
3.44827586206896575e-01 2.06896551724137928e-01 0 
3.79310344827586188e-01 2.06896551724137928e-01 0 
4.13793103448275856e-01 2.06896551724137928e-01 0 
4.48275862068965525e-01 2.06896551724137928e-01 0 
4.82758620689655138e-01 2.06896551724137928e-01 0 
0.00000000000000000e+00 0.00000000000000000e+00 0 
0.00000000000000000e+00 2.41379310344827569e-01 0 
3.44827586206896547e-02 2.41379310344827569e-01 0 
6.89655172413793094e-02 2.41379310344827569e-01 0 
1.03448275862068964e-01 2.41379310344827569e-01 0 
1.37931034482758619e-01 2.41379310344827569e-01 0 
1.72413793103448287e-01 2.41379310344827569e-01 0 
2.06896551724137928e-01 2.41379310344827569e-01 0 
2.41379310344827569e-01 2.41379310344827569e-01 0 
2.75862068965517238e-01 2.41379310344827569e-01 0 
3.10344827586206906e-01 2.41379310344827569e-01 0 
3.44827586206896575e-01 2.41379310344827569e-01 0 
3.79310344827586188e-01 2.41379310344827569e-01 0 
4.13793103448275856e-01 2.41379310344827569e-01 0 
4.48275862068965525e-01 2.41379310344827569e-01 0 
4.82758620689655138e-01 2.41379310344827569e-01 0 
0.00000000000000000e+00 0.00000000000000000e+00 0 
0.00000000000000000e+00 2.75862068965517238e-01 0 
3.44827586206896547e-02 2.75862068965517238e-01 0 
6.89655172413793094e-02 2.75862068965517238e-01 0 
1.03448275862068964e-01 2.75862068965517238e-01 0 
1.37931034482758619e-01 2.75862068965517238e-01 0 
1.72413793103448287e-01 2.75862068965517238e-01 0 
2.06896551724137928e-01 2.75862068965517238e-01 0 
2.41379310344827569e-01 2.75862068965517238e-01 0 
2.75862068965517238e-01 2.75862068965517238e-01 0 
3.10344827586206906e-01 2.75862068965517238e-01 0 
3.44827586206896575e-01 2.75862068965517238e-01 0 
3.79310344827586188e-01 2.75862068965517238e-01 0 
4.13793103448275856e-01 2.75862068965517238e-01 0 
4.48275862068965525e-01 2.75862068965517238e-01 0 
4.82758620689655138e-01 2.75862068965517238e-01 0 
0.00000000000000000e+00 0.00000000000000000e+00 0 
0.00000000000000000e+00 3.10344827586206906e-01 0 
3.44827586206896547e-02 3.10344827586206906e-01 0 
6.89655172413793094e-02 3.10344827586206906e-01 0 
1.03448275862068964e-01 3.10344827586206906e-01 0 
1.37931034482758619e-01 3.10344827586206906e-01 0 
1.72413793103448287e-01 3.10344827586206906e-01 0 
2.06896551724137928e-01 3.10344827586206906e-01 0 
2.41379310344827569e-01 3.10344827586206906e-01 0 
2.75862068965517238e-01 3.10344827586206906e-01 0 
3.10344827586206906e-01 3.10344827586206906e-01 0 
3.44827586206896575e-01 3.10344827586206906e-01 0 
3.79310344827586188e-01 3.10344827586206906e-01 0 
4.13793103448275856e-01 3.10344827586206906e-01 0 
4.48275862068965525e-01 3.10344827586206906e-01 0 
4.82758620689655138e-01 3.10344827586206906e-01 0 
0.00000000000000000e+00 0.00000000000000000e+00 0 
0.00000000000000000e+00 3.44827586206896575e-01 0 
3.44827586206896547e-02 3.44827586206896575e-01 0 
6.89655172413793094e-02 3.44827586206896575e-01 0 
1.03448275862068964e-01 3.44827586206896575e-01 0 
1.37931034482758619e-01 3.44827586206896575e-01 0 
1.72413793103448287e-01 3.44827586206896575e-01 0 
2.06896551724137928e-01 3.44827586206896575e-01 0 
2.41379310344827569e-01 3.44827586206896575e-01 0 
2.75862068965517238e-01 3.44827586206896575e-01 0 
3.10344827586206906e-01 3.44827586206896575e-01 0 
3.44827586206896575e-01 3.44827586206896575e-01 0 
3.79310344827586188e-01 3.44827586206896575e-01 0 
4.13793103448275856e-01 3.44827586206896575e-01 0 
4.48275862068965525e-01 3.44827586206896575e-01 0 
4.82758620689655138e-01 3.44827586206896575e-01 0 
0.00000000000000000e+00 0.00000000000000000e+00 0 
0.00000000000000000e+00 3.79310344827586188e-01 0 
3.44827586206896547e-02 3.79310344827586188e-01 0 
6.89655172413793094e-02 3.79310344827586188e-01 0 
1.03448275862068964e-01 3.79310344827586188e-01 0 
1.37931034482758619e-01 3.79310344827586188e-01 0 
1.72413793103448287e-01 3.79310344827586188e-01 0 
2.06896551724137928e-01 3.79310344827586188e-01 0 
2.41379310344827569e-01 3.79310344827586188e-01 0 
2.75862068965517238e-01 3.79310344827586188e-01 0 
3.10344827586206906e-01 3.79310344827586188e-01 0 
3.44827586206896575e-01 3.79310344827586188e-01 0 
3.79310344827586188e-01 3.79310344827586188e-01 0 
4.13793103448275856e-01 3.79310344827586188e-01 0 
4.48275862068965525e-01 3.79310344827586188e-01 0 
4.82758620689655138e-01 3.79310344827586188e-01 0 
0.00000000000000000e+00 0.00000000000000000e+00 0 
0.00000000000000000e+00 4.13793103448275856e-01 0 
3.44827586206896547e-02 4.13793103448275856e-01 0 
6.89655172413793094e-02 4.13793103448275856e-01 0 
1.03448275862068964e-01 4.13793103448275856e-01 0 
1.37931034482758619e-01 4.13793103448275856e-01 0 
1.72413793103448287e-01 4.13793103448275856e-01 0 
2.06896551724137928e-01 4.13793103448275856e-01 0 
2.41379310344827569e-01 4.13793103448275856e-01 0 
2.75862068965517238e-01 4.13793103448275856e-01 0 
3.10344827586206906e-01 4.13793103448275856e-01 0 
3.44827586206896575e-01 4.13793103448275856e-01 0 
3.79310344827586188e-01 4.13793103448275856e-01 0 
4.13793103448275856e-01 4.13793103448275856e-01 0 
4.48275862068965525e-01 4.13793103448275856e-01 0 
4.82758620689655138e-01 4.13793103448275856e-01 0 
0.00000000000000000e+00 0.00000000000000000e+00 0 
0.00000000000000000e+00 4.48275862068965525e-01 0 
3.44827586206896547e-02 4.48275862068965525e-01 0 
6.89655172413793094e-02 4.48275862068965525e-01 0 
1.03448275862068964e-01 4.48275862068965525e-01 0 
1.37931034482758619e-01 4.48275862068965525e-01 0 
1.72413793103448287e-01 4.48275862068965525e-01 0 
2.06896551724137928e-01 4.48275862068965525e-01 0 
2.41379310344827569e-01 4.48275862068965525e-01 0 
2.75862068965517238e-01 4.48275862068965525e-01 0 
3.10344827586206906e-01 4.48275862068965525e-01 0 
3.44827586206896575e-01 4.48275862068965525e-01 0 
3.79310344827586188e-01 4.48275862068965525e-01 0 
4.13793103448275856e-01 4.48275862068965525e-01 0 
4.48275862068965525e-01 4.48275862068965525e-01 0 
4.82758620689655138e-01 4.48275862068965525e-01 0 
0.00000000000000000e+00 0.00000000000000000e+00 0 
0.00000000000000000e+00 4.82758620689655138e-01 0 
3.44827586206896547e-02 4.82758620689655138e-01 0 
6.89655172413793094e-02 4.82758620689655138e-01 0 
1.03448275862068964e-01 4.82758620689655138e-01 0 
1.37931034482758619e-01 4.82758620689655138e-01 0 
1.72413793103448287e-01 4.82758620689655138e-01 0 
2.06896551724137928e-01 4.82758620689655138e-01 0 
2.41379310344827569e-01 4.82758620689655138e-01 0 
2.75862068965517238e-01 4.82758620689655138e-01 0 
3.10344827586206906e-01 4.82758620689655138e-01 0 
3.44827586206896575e-01 4.82758620689655138e-01 0 
3.79310344827586188e-01 4.82758620689655138e-01 0 
4.13793103448275856e-01 4.82758620689655138e-01 0 
4.48275862068965525e-01 4.82758620689655138e-01 0 
4.82758620689655138e-01 4.82758620689655138e-01 0 
0.00000000000000000e+00 0.00000000000000000e+00 0 
0.00000000000000000e+00 0.00000000000000000e+00 0 
0.00000000000000000e+00 0.00000000000000000e+00 0 
0.00000000000000000e+00 0.00000000000000000e+00 0 
0.00000000000000000e+00 0.00000000000000000e+00 0 
0.00000000000000000e+00 0.00000000000000000e+00 0 
0.00000000000000000e+00 0.00000000000000000e+00 0 
0.00000000000000000e+00 0.00000000000000000e+00 0 
0.00000000000000000e+00 0.00000000000000000e+00 0 
0.00000000000000000e+00 0.00000000000000000e+00 0 
0.00000000000000000e+00 0.00000000000000000e+00 0 
0.00000000000000000e+00 0.00000000000000000e+00 0 
0.00000000000000000e+00 0.00000000000000000e+00 0 
0.00000000000000000e+00 0.00000000000000000e+00 0 
0.00000000000000000e+00 0.00000000000000000e+00 0 
0.00000000000000000e+00 0.00000000000000000e+00 0 
0.00000000000000000e+00 0.00000000000000000e+00 0 
</DataArray>
</Points>
<PointData>
<DataArray type="Float64" Name="heat" NumberOfComponents="1" format="ascii">
4.59999999999999609e+00
4.60118906064208755e+00
4.60475624256836813e+00
4.61070154577883695e+00
4.61902497027348424e+00
4.62972651605231533e+00
4.64280618311533821e+00
4.65826397146254312e+00
4.67609988109393093e+00
4.69631391200950521e+00
4.71890606420926773e+00
4.74387633769321670e+00
4.77122473246135392e+00
4.80095124851366961e+00
4.83305588585017531e+00
0.00000000000000000e+00
4.60237812128418078e+00
4.60356718192627579e+00
4.60713436385255459e+00
4.61307966706302075e+00
4.62140309155766804e+00
4.63210463733650180e+00
4.64518430439952112e+00
4.66064209274673402e+00
4.67847800237811917e+00
4.69869203329369700e+00
4.72128418549345774e+00
4.74625445897740317e+00
4.77360285374554305e+00
4.80332936979785607e+00
4.83543400713436178e+00
0.00000000000000000e+00
4.60951248513673839e+00
4.61070154577883429e+00
4.61426872770510865e+00
4.62021403091557303e+00
4.62853745541022654e+00
4.63923900118906740e+00
4.65231866825208495e+00
4.66777645659928897e+00
4.68561236623068122e+00
4.70582639714625461e+00
4.72841854934601979e+00
4.75338882282996344e+00
4.78073721759809622e+00
4.81046373365041635e+00
4.84256837098692117e+00
0.00000000000000000e+00
4.62140309155766715e+00
4.62259215219975950e+00
4.62615933412603653e+00
4.63210463733650357e+00
4.64042806183115442e+00
4.65112960760998551e+00
4.66420927467301016e+00
4.67966706302021418e+00
4.69750297265160466e+00
4.71771700356718160e+00
4.74030915576694589e+00
4.76527942925088865e+00
4.79262782401902587e+00
4.82235434007133890e+00
4.85445897740784460e+00
0.00000000000000000e+00
4.63804994054696973e+00
4.63923900118906030e+00
4.64280618311533733e+00
4.64875148632579993e+00
4.65707491082045166e+00
4.66777645659929075e+00
4.68085612366230741e+00
4.69631391200950965e+00
4.71414982164090102e+00
4.73436385255648062e+00
4.75695600475624492e+00
4.78192627824019123e+00
4.80927467300832223e+00
4.83900118906064236e+00
4.87110582639714451e+00
0.00000000000000000e+00
4.65945303210463546e+00
4.66064209274672603e+00
4.66420927467300928e+00
4.67015457788347366e+00
4.67847800237812450e+00
4.68917954815695914e+00
4.70225921521997758e+00
4.71771700356718338e+00
4.73555291319857563e+00
4.75576694411414636e+00
4.77835909631391065e+00
4.80332936979785607e+00
4.83067776456599063e+00
4.86040428061831076e+00
4.89250891795481468e+00
0.00000000000000000e+00
4.68561236623067146e+00
4.68680142687276824e+00
4.69036860879904616e+00
4.69631391200951498e+00
4.70463733650416671e+00
4.71533888228299691e+00
4.72841854934601624e+00
4.74387633769322292e+00
4.76171224732461607e+00
4.78192627824019034e+00
4.80451843043995019e+00
4.82948870392390006e+00
4.85683709869203284e+00
4.88656361474435652e+00
4.91866825208085778e+00
0.00000000000000000e+00
4.71652794292508215e+00
4.71771700356718249e+00
4.72128418549345863e+00
4.72722948870392656e+00
4.73555291319857297e+00
4.74625445897740406e+00
4.75933412604042783e+00
4.77479191438763362e+00
4.79262782401902321e+00
4.81284185493460193e+00
4.83543400713436444e+00
4.86040428061831253e+00
4.88775267538644531e+00
4.91747919143876278e+00
4.94958382877527114e+00
0.00000000000000000e+00
4.75219976218786844e+00
4.75338882282996167e+00
4.75695600475623603e+00
4.76290130796670930e+00
4.77122473246136103e+00
4.78192627824019567e+00
4.79500594530320878e+00
4.81046373365041813e+00
4.82829964328180772e+00
4.84851367419738111e+00
4.87110582639714806e+00
4.89607609988109260e+00
4.92342449464923071e+00
4.95315101070154551e+00
4.98525564803805477e+00
0.00000000000000000e+00
4.79262782401902054e+00
4.79381688466111466e+00
4.79738406658739613e+00
4.80332936979786318e+00
4.81165279429251047e+00
4.82235434007134423e+00
4.83543400713436178e+00
4.85089179548156846e+00
4.86872770511295805e+00
4.88894173602853943e+00
4.91153388822830195e+00
4.93650416171224737e+00
4.96385255648038282e+00
4.99357907253270028e+00
5.02568370986920332e+00
0.00000000000000000e+00
4.83781212841854380e+00
4.83900118906064591e+00
4.84256837098692028e+00
4.84851367419738644e+00
4.85683709869203284e+00
4.86753864447086659e+00
4.88061831153389036e+00
4.89607609988109260e+00
4.91391200951249107e+00
4.93412604042806269e+00
4.95671819262782343e+00
4.98168846611177152e+00
5.00903686087990785e+00
5.03876337693222442e+00
5.07086801426872924e+00
0.00000000000000000e+00
4.88775267538644087e+00
4.88894173602853677e+00
4.89250891795481113e+00
4.89845422116527729e+00
4.90677764565992813e+00
4.91747919143876633e+00
4.93055885850178388e+00
4.94601664684898612e+00
4.96385255648038104e+00
4.98406658739595798e+00
5.00665873959571694e+00
5.03162901307966770e+00
5.05897740784780137e+00
5.08870392390011794e+00
5.12080856123662365e+00
0.00000000000000000e+00
4.94244946492270909e+00
4.94363852556480055e+00
4.94720570749108024e+00
4.95315101070154107e+00
4.96147443519619458e+00
4.97217598097502655e+00
4.98525564803804855e+00
5.00071343638525789e+00
5.01854934601664926e+00
5.03876337693222442e+00
5.06135552913198428e+00
5.08632580261593681e+00
5.11367419738406781e+00
5.14340071343638261e+00
5.17550535077289187e+00
0.00000000000000000e+00
5.00190249702734846e+00
5.00309155766943547e+00
5.00665873959571783e+00
5.01260404280618133e+00
5.02092746730083128e+00
5.03162901307966770e+00
5.04470868014268525e+00
5.06016646848989549e+00
5.07800237812128685e+00
5.09821640903686291e+00
5.12080856123662187e+00
5.14577883472057174e+00
5.17312722948870718e+00
5.20285374554101931e+00
5.23495838287753212e+00
0.00000000000000000e+00
5.06611177170035010e+00
5.06730083234244777e+00
5.07086801426872746e+00
5.07681331747918829e+00
5.08513674197384358e+00
5.09583828775267289e+00
5.10891795481569311e+00
5.12437574316290245e+00
5.14221165279429471e+00
5.16242568370986898e+00
5.18501783590962972e+00
5.20998810939357870e+00
5.23733650416170970e+00
5.26706302021402717e+00
5.29916765755053465e+00
0.00000000000000000e+00
0.00000000000000000e+00
0.00000000000000000e+00
0.00000000000000000e+00
0.00000000000000000e+00
0.00000000000000000e+00
0.00000000000000000e+00
0.00000000000000000e+00
0.00000000000000000e+00
0.00000000000000000e+00
0.00000000000000000e+00
0.00000000000000000e+00
0.00000000000000000e+00
0.00000000000000000e+00
0.00000000000000000e+00
0.00000000000000000e+00
0.00000000000000000e+00
</DataArray>
</PointData>
</Piece>
</StructuredGrid>
</VTKFile>
