<?xml version="1.0"?>
<VTKFile type="StructuredGrid">
<StructuredGrid WholeExtent="14 29 14 29 0 0 ">
<Piece Extent="14 29 14 29 0 0 ">
<Points>
<DataArray type="Float64" Name="coordinate" NumberOfComponents="3" format="ascii">
0.00000000000000000e+00 0.00000000000000000e+00 0 
0.00000000000000000e+00 0.00000000000000000e+00 0 
0.00000000000000000e+00 0.00000000000000000e+00 0 
0.00000000000000000e+00 0.00000000000000000e+00 0 
0.00000000000000000e+00 0.00000000000000000e+00 0 
0.00000000000000000e+00 0.00000000000000000e+00 0 
0.00000000000000000e+00 0.00000000000000000e+00 0 
0.00000000000000000e+00 0.00000000000000000e+00 0 
0.00000000000000000e+00 0.00000000000000000e+00 0 
0.00000000000000000e+00 0.00000000000000000e+00 0 
0.00000000000000000e+00 0.00000000000000000e+00 0 
0.00000000000000000e+00 0.00000000000000000e+00 0 
0.00000000000000000e+00 0.00000000000000000e+00 0 
0.00000000000000000e+00 0.00000000000000000e+00 0 
0.00000000000000000e+00 0.00000000000000000e+00 0 
0.00000000000000000e+00 0.00000000000000000e+00 0 
0.00000000000000000e+00 0.00000000000000000e+00 0 
5.17241379310344862e-01 5.17241379310344862e-01 0 
5.51724137931034475e-01 5.17241379310344862e-01 0 
5.86206896551724088e-01 5.17241379310344862e-01 0 
6.20689655172413812e-01 5.17241379310344862e-01 0 
6.55172413793103425e-01 5.17241379310344862e-01 0 
6.89655172413793149e-01 5.17241379310344862e-01 0 
7.24137931034482762e-01 5.17241379310344862e-01 0 
7.58620689655172376e-01 5.17241379310344862e-01 0 
7.93103448275862100e-01 5.17241379310344862e-01 0 
8.27586206896551713e-01 5.17241379310344862e-01 0 
8.62068965517241326e-01 5.17241379310344862e-01 0 
8.96551724137931050e-01 5.17241379310344862e-01 0 
9.31034482758620663e-01 5.17241379310344862e-01 0 
9.65517241379310276e-01 5.17241379310344862e-01 0 
1.00000000000000000e+00 5.17241379310344862e-01 0 
0.00000000000000000e+00 0.00000000000000000e+00 0 
5.17241379310344862e-01 5.51724137931034475e-01 0 
5.51724137931034475e-01 5.51724137931034475e-01 0 
5.86206896551724088e-01 5.51724137931034475e-01 0 
6.20689655172413812e-01 5.51724137931034475e-01 0 
6.55172413793103425e-01 5.51724137931034475e-01 0 
6.89655172413793149e-01 5.51724137931034475e-01 0 
7.24137931034482762e-01 5.51724137931034475e-01 0 
7.58620689655172376e-01 5.51724137931034475e-01 0 
7.93103448275862100e-01 5.51724137931034475e-01 0 
8.27586206896551713e-01 5.51724137931034475e-01 0 
8.62068965517241326e-01 5.51724137931034475e-01 0 
8.96551724137931050e-01 5.51724137931034475e-01 0 
9.31034482758620663e-01 5.51724137931034475e-01 0 
9.65517241379310276e-01 5.51724137931034475e-01 0 
1.00000000000000000e+00 5.51724137931034475e-01 0 
0.00000000000000000e+00 0.00000000000000000e+00 0 
5.17241379310344862e-01 5.86206896551724088e-01 0 
5.51724137931034475e-01 5.86206896551724088e-01 0 
5.86206896551724088e-01 5.86206896551724088e-01 0 
6.20689655172413812e-01 5.86206896551724088e-01 0 
6.55172413793103425e-01 5.86206896551724088e-01 0 
6.89655172413793149e-01 5.86206896551724088e-01 0 
7.24137931034482762e-01 5.86206896551724088e-01 0 
7.58620689655172376e-01 5.86206896551724088e-01 0 
7.93103448275862100e-01 5.86206896551724088e-01 0 
8.27586206896551713e-01 5.86206896551724088e-01 0 
8.62068965517241326e-01 5.86206896551724088e-01 0 
8.96551724137931050e-01 5.86206896551724088e-01 0 
9.31034482758620663e-01 5.86206896551724088e-01 0 
9.65517241379310276e-01 5.86206896551724088e-01 0 
1.00000000000000000e+00 5.86206896551724088e-01 0 
0.00000000000000000e+00 0.00000000000000000e+00 0 
5.17241379310344862e-01 6.20689655172413812e-01 0 
5.51724137931034475e-01 6.20689655172413812e-01 0 
5.86206896551724088e-01 6.20689655172413812e-01 0 
6.20689655172413812e-01 6.20689655172413812e-01 0 
6.55172413793103425e-01 6.20689655172413812e-01 0 
6.89655172413793149e-01 6.20689655172413812e-01 0 
7.24137931034482762e-01 6.20689655172413812e-01 0 
7.58620689655172376e-01 6.20689655172413812e-01 0 
7.93103448275862100e-01 6.20689655172413812e-01 0 
8.27586206896551713e-01 6.20689655172413812e-01 0 
8.62068965517241326e-01 6.20689655172413812e-01 0 
8.96551724137931050e-01 6.20689655172413812e-01 0 
9.31034482758620663e-01 6.20689655172413812e-01 0 
9.65517241379310276e-01 6.20689655172413812e-01 0 
1.00000000000000000e+00 6.20689655172413812e-01 0 
0.00000000000000000e+00 0.00000000000000000e+00 0 
5.17241379310344862e-01 6.55172413793103425e-01 0 
5.51724137931034475e-01 6.55172413793103425e-01 0 
5.86206896551724088e-01 6.55172413793103425e-01 0 
6.20689655172413812e-01 6.55172413793103425e-01 0 
6.55172413793103425e-01 6.55172413793103425e-01 0 
6.89655172413793149e-01 6.55172413793103425e-01 0 
7.24137931034482762e-01 6.55172413793103425e-01 0 
7.58620689655172376e-01 6.55172413793103425e-01 0 
7.93103448275862100e-01 6.55172413793103425e-01 0 
8.27586206896551713e-01 6.55172413793103425e-01 0 
8.62068965517241326e-01 6.55172413793103425e-01 0 
8.96551724137931050e-01 6.55172413793103425e-01 0 
9.31034482758620663e-01 6.55172413793103425e-01 0 
9.65517241379310276e-01 6.55172413793103425e-01 0 
1.00000000000000000e+00 6.55172413793103425e-01 0 
0.00000000000000000e+00 0.00000000000000000e+00 0 
5.17241379310344862e-01 6.89655172413793149e-01 0 
5.51724137931034475e-01 6.89655172413793149e-01 0 
5.86206896551724088e-01 6.89655172413793149e-01 0 
6.20689655172413812e-01 6.89655172413793149e-01 0 
6.55172413793103425e-01 6.89655172413793149e-01 0 
6.89655172413793149e-01 6.89655172413793149e-01 0 
7.24137931034482762e-01 6.89655172413793149e-01 0 
7.58620689655172376e-01 6.89655172413793149e-01 0 
7.93103448275862100e-01 6.89655172413793149e-01 0 
8.27586206896551713e-01 6.89655172413793149e-01 0 
8.62068965517241326e-01 6.89655172413793149e-01 0 
8.96551724137931050e-01 6.89655172413793149e-01 0 
9.31034482758620663e-01 6.89655172413793149e-01 0 
9.65517241379310276e-01 6.89655172413793149e-01 0 
1.00000000000000000e+00 6.89655172413793149e-01 0 
0.00000000000000000e+00 0.00000000000000000e+00 0 
5.17241379310344862e-01 7.24137931034482762e-01 0 
5.51724137931034475e-01 7.24137931034482762e-01 0 
5.86206896551724088e-01 7.24137931034482762e-01 0 
6.20689655172413812e-01 7.24137931034482762e-01 0 
6.55172413793103425e-01 7.24137931034482762e-01 0 
6.89655172413793149e-01 7.24137931034482762e-01 0 
7.24137931034482762e-01 7.24137931034482762e-01 0 
7.58620689655172376e-01 7.24137931034482762e-01 0 
7.93103448275862100e-01 7.24137931034482762e-01 0 
8.27586206896551713e-01 7.24137931034482762e-01 0 
8.62068965517241326e-01 7.24137931034482762e-01 0 
8.96551724137931050e-01 7.24137931034482762e-01 0 
9.31034482758620663e-01 7.24137931034482762e-01 0 
9.65517241379310276e-01 7.24137931034482762e-01 0 
1.00000000000000000e+00 7.24137931034482762e-01 0 
0.00000000000000000e+00 0.00000000000000000e+00 0 
5.17241379310344862e-01 7.58620689655172376e-01 0 
5.51724137931034475e-01 7.58620689655172376e-01 0 
5.86206896551724088e-01 7.58620689655172376e-01 0 
6.20689655172413812e-01 7.58620689655172376e-01 0 
6.55172413793103425e-01 7.58620689655172376e-01 0 
6.89655172413793149e-01 7.58620689655172376e-01 0 
7.24137931034482762e-01 7.58620689655172376e-01 0 
7.58620689655172376e-01 7.58620689655172376e-01 0 
7.93103448275862100e-01 7.58620689655172376e-01 0 
8.27586206896551713e-01 7.58620689655172376e-01 0 
8.62068965517241326e-01 7.58620689655172376e-01 0 
8.96551724137931050e-01 7.58620689655172376e-01 0 
9.31034482758620663e-01 7.58620689655172376e-01 0 
9.65517241379310276e-01 7.58620689655172376e-01 0 
1.00000000000000000e+00 7.58620689655172376e-01 0 
0.00000000000000000e+00 0.00000000000000000e+00 0 
5.17241379310344862e-01 7.93103448275862100e-01 0 
5.51724137931034475e-01 7.93103448275862100e-01 0 
5.86206896551724088e-01 7.93103448275862100e-01 0 
6.20689655172413812e-01 7.93103448275862100e-01 0 
6.55172413793103425e-01 7.93103448275862100e-01 0 
6.89655172413793149e-01 7.93103448275862100e-01 0 
7.24137931034482762e-01 7.93103448275862100e-01 0 
7.58620689655172376e-01 7.93103448275862100e-01 0 
7.93103448275862100e-01 7.93103448275862100e-01 0 
8.27586206896551713e-01 7.93103448275862100e-01 0 
8.62068965517241326e-01 7.93103448275862100e-01 0 
8.96551724137931050e-01 7.93103448275862100e-01 0 
9.31034482758620663e-01 7.93103448275862100e-01 0 
9.65517241379310276e-01 7.93103448275862100e-01 0 
1.00000000000000000e+00 7.93103448275862100e-01 0 
0.00000000000000000e+00 0.00000000000000000e+00 0 
5.17241379310344862e-01 8.27586206896551713e-01 0 
5.51724137931034475e-01 8.27586206896551713e-01 0 
5.86206896551724088e-01 8.27586206896551713e-01 0 
6.20689655172413812e-01 8.27586206896551713e-01 0 
6.55172413793103425e-01 8.27586206896551713e-01 0 
6.89655172413793149e-01 8.27586206896551713e-01 0 
7.24137931034482762e-01 8.27586206896551713e-01 0 
7.58620689655172376e-01 8.27586206896551713e-01 0 
7.93103448275862100e-01 8.27586206896551713e-01 0 
8.27586206896551713e-01 8.27586206896551713e-01 0 
8.62068965517241326e-01 8.27586206896551713e-01 0 
8.96551724137931050e-01 8.27586206896551713e-01 0 
9.31034482758620663e-01 8.27586206896551713e-01 0 
9.65517241379310276e-01 8.27586206896551713e-01 0 
1.00000000000000000e+00 8.27586206896551713e-01 0 
0.00000000000000000e+00 0.00000000000000000e+00 0 
5.17241379310344862e-01 8.62068965517241326e-01 0 
5.51724137931034475e-01 8.62068965517241326e-01 0 
5.86206896551724088e-01 8.62068965517241326e-01 0 
6.20689655172413812e-01 8.62068965517241326e-01 0 
6.55172413793103425e-01 8.62068965517241326e-01 0 
6.89655172413793149e-01 8.62068965517241326e-01 0 
7.24137931034482762e-01 8.62068965517241326e-01 0 
7.58620689655172376e-01 8.62068965517241326e-01 0 
7.93103448275862100e-01 8.62068965517241326e-01 0 
8.27586206896551713e-01 8.62068965517241326e-01 0 
8.62068965517241326e-01 8.62068965517241326e-01 0 
8.96551724137931050e-01 8.62068965517241326e-01 0 
9.31034482758620663e-01 8.62068965517241326e-01 0 
9.65517241379310276e-01 8.62068965517241326e-01 0 
1.00000000000000000e+00 8.62068965517241326e-01 0 
0.00000000000000000e+00 0.00000000000000000e+00 0 
5.17241379310344862e-01 8.96551724137931050e-01 0 
5.51724137931034475e-01 8.96551724137931050e-01 0 
5.86206896551724088e-01 8.96551724137931050e-01 0 
6.20689655172413812e-01 8.96551724137931050e-01 0 
6.55172413793103425e-01 8.96551724137931050e-01 0 
6.89655172413793149e-01 8.96551724137931050e-01 0 
7.24137931034482762e-01 8.96551724137931050e-01 0 
7.58620689655172376e-01 8.96551724137931050e-01 0 
7.93103448275862100e-01 8.96551724137931050e-01 0 
8.27586206896551713e-01 8.96551724137931050e-01 0 
8.62068965517241326e-01 8.96551724137931050e-01 0 
8.96551724137931050e-01 8.96551724137931050e-01 0 
9.31034482758620663e-01 8.96551724137931050e-01 0 
9.65517241379310276e-01 8.96551724137931050e-01 0 
1.00000000000000000e+00 8.96551724137931050e-01 0 
0.00000000000000000e+00 0.00000000000000000e+00 0 
5.17241379310344862e-01 9.31034482758620663e-01 0 
5.51724137931034475e-01 9.31034482758620663e-01 0 
5.86206896551724088e-01 9.31034482758620663e-01 0 
6.20689655172413812e-01 9.31034482758620663e-01 0 
6.55172413793103425e-01 9.31034482758620663e-01 0 
6.89655172413793149e-01 9.31034482758620663e-01 0 
7.24137931034482762e-01 9.31034482758620663e-01 0 
7.58620689655172376e-01 9.31034482758620663e-01 0 
7.93103448275862100e-01 9.31034482758620663e-01 0 
8.27586206896551713e-01 9.31034482758620663e-01 0 
8.62068965517241326e-01 9.31034482758620663e-01 0 
8.96551724137931050e-01 9.31034482758620663e-01 0 
9.31034482758620663e-01 9.31034482758620663e-01 0 
9.65517241379310276e-01 9.31034482758620663e-01 0 
1.00000000000000000e+00 9.31034482758620663e-01 0 
0.00000000000000000e+00 0.00000000000000000e+00 0 
5.17241379310344862e-01 9.65517241379310276e-01 0 
5.51724137931034475e-01 9.65517241379310276e-01 0 
5.86206896551724088e-01 9.65517241379310276e-01 0 
6.20689655172413812e-01 9.65517241379310276e-01 0 
6.55172413793103425e-01 9.65517241379310276e-01 0 
6.89655172413793149e-01 9.65517241379310276e-01 0 
7.24137931034482762e-01 9.65517241379310276e-01 0 
7.58620689655172376e-01 9.65517241379310276e-01 0 
7.93103448275862100e-01 9.65517241379310276e-01 0 
8.27586206896551713e-01 9.65517241379310276e-01 0 
8.62068965517241326e-01 9.65517241379310276e-01 0 
8.96551724137931050e-01 9.65517241379310276e-01 0 
9.31034482758620663e-01 9.65517241379310276e-01 0 
9.65517241379310276e-01 9.65517241379310276e-01 0 
1.00000000000000000e+00 9.65517241379310276e-01 0 
0.00000000000000000e+00 0.00000000000000000e+00 0 
5.17241379310344862e-01 1.00000000000000000e+00 0 
5.51724137931034475e-01 1.00000000000000000e+00 0 
5.86206896551724088e-01 1.00000000000000000e+00 0 
6.20689655172413812e-01 1.00000000000000000e+00 0 
6.55172413793103425e-01 1.00000000000000000e+00 0 
6.89655172413793149e-01 1.00000000000000000e+00 0 
7.24137931034482762e-01 1.00000000000000000e+00 0 
7.58620689655172376e-01 1.00000000000000000e+00 0 
7.93103448275862100e-01 1.00000000000000000e+00 0 
8.27586206896551713e-01 1.00000000000000000e+00 0 
8.62068965517241326e-01 1.00000000000000000e+00 0 
8.96551724137931050e-01 1.00000000000000000e+00 0 
9.31034482758620663e-01 1.00000000000000000e+00 0 
9.65517241379310276e-01 1.00000000000000000e+00 0 
1.00000000000000000e+00 1.00000000000000000e+00 0 
</DataArray>
</Points>
<PointData>
<DataArray type="Float64" Name="heat" NumberOfComponents="1" format="ascii">
0.00000000000000000e+00
0.00000000000000000e+00
0.00000000000000000e+00
0.00000000000000000e+00
0.00000000000000000e+00
0.00000000000000000e+00
0.00000000000000000e+00
0.00000000000000000e+00
0.00000000000000000e+00
0.00000000000000000e+00
0.00000000000000000e+00
0.00000000000000000e+00
0.00000000000000000e+00
0.00000000000000000e+00
0.00000000000000000e+00
0.00000000000000000e+00
0.00000000000000000e+00
3.40261593341260449e+00
3.43947681331747956e+00
3.47871581450653977e+00
3.52033293697978733e+00
3.56432818073721824e+00
3.61070154577883473e+00
3.65945303210463679e+00
3.71058263971462088e+00
3.76409036860879764e+00
3.81997621878715687e+00
3.87824019024970124e+00
3.93888228299643117e+00
4.00190249702735024e+00
4.06730083234244866e+00
4.13507728894173443e+00
0.00000000000000000e+00
3.47633769322235420e+00
3.51319857312722883e+00
3.55243757431629126e+00
3.59405469678953793e+00
3.63804994054696795e+00
3.68442330558858355e+00
3.73317479191438606e+00
3.78430439952437547e+00
3.83781212841854691e+00
3.89369797859690614e+00
3.95196195005945139e+00
4.01260404280618310e+00
4.07562425683710217e+00
4.14102259215220325e+00
4.20879904875148103e+00
0.00000000000000000e+00
3.55481569560047594e+00
3.59167657550535013e+00
3.63091557669441256e+00
3.67253269916765746e+00
3.71652794292509014e+00
3.76290130796670530e+00
3.81165279429250958e+00
3.86278240190249766e+00
3.91629013079666999e+00
3.97217598097502700e+00
4.03043995243757269e+00
4.09108204518430263e+00
4.15410225921522791e+00
4.21950059453032367e+00
4.28727705112960766e+00
0.00000000000000000e+00
3.63804994054696884e+00
3.67491082045184392e+00
3.71414982164090368e+00
3.75576694411415080e+00
3.79976218787158126e+00
3.84613555291319864e+00
3.89488703923900292e+00
3.94601664684899056e+00
3.99952437574316289e+00
4.05541022592151901e+00
4.11367419738406248e+00
4.17431629013079686e+00
4.23733650416171237e+00
4.30273483947681168e+00
4.37051129607609212e+00
0.00000000000000000e+00
3.72604042806183067e+00
3.76290130796670796e+00
3.80214030915576817e+00
3.84375743162901218e+00
3.88775267538644176e+00
3.93412604042806313e+00
3.98287752675386253e+00
4.03400713436385683e+00
4.08751486325803004e+00
4.14340071343638794e+00
4.20166468489892786e+00
4.26230677764565691e+00
4.32532699167657064e+00
4.39072532699168239e+00
4.45850178359095839e+00
0.00000000000000000e+00
3.81878715814506364e+00
3.85564803804993872e+00
3.89488703923899937e+00
3.93650416171224604e+00
3.98049940546967784e+00
4.02687277051129833e+00
4.07562425683709506e+00
4.12675386444708714e+00
4.18026159334126035e+00
4.23614744351961736e+00
4.29441141498216528e+00
4.35505350772889521e+00
4.41807372175980806e+00
4.48347205707491447e+00
4.55124851367419581e+00
0.00000000000000000e+00
3.91629013079666599e+00
3.95315101070154418e+00
3.99239001189060794e+00
4.03400713436385061e+00
4.07800237812128241e+00
4.12437574316290512e+00
4.17312722948869919e+00
4.22425683709869038e+00
4.27776456599286536e+00
4.33365041617122326e+00
4.39191438763376762e+00
4.45255648038049934e+00
4.51557669441141663e+00
4.58097502972651860e+00
4.64875148632579815e+00
0.00000000000000000e+00
4.01854934601664571e+00
4.05541022592152167e+00
4.09464922711058410e+00
4.13626634958383121e+00
4.18026159334126035e+00
4.22663495838287417e+00
4.27538644470868334e+00
4.32651605231867009e+00
4.38002378121284153e+00
4.43590963139120387e+00
4.49417360285374556e+00
4.55481569560047905e+00
4.61783590963139812e+00
4.68323424494649299e+00
4.75101070154577698e+00
0.00000000000000000e+00
4.12556480380499124e+00
4.16242568370986810e+00
4.20166468489892697e+00
4.24328180737217497e+00
4.28727705112960766e+00
4.33365041617122415e+00
4.38240190249703065e+00
4.43353151010701207e+00
4.48703923900118706e+00
4.54292508917955118e+00
4.60118906064209465e+00
4.66183115338882370e+00
4.72485136741973921e+00
4.79024970273483941e+00
4.85802615933412341e+00
0.00000000000000000e+00
4.23733650416170970e+00
4.27419738406658567e+00
4.31343638525565076e+00
4.35505350772889344e+00
4.39904875148632879e+00
4.44542211652793995e+00
4.49417360285374112e+00
4.54530321046373142e+00
4.59881093935790819e+00
4.65469678953626254e+00
4.71296076099881223e+00
4.77360285374554305e+00
4.83662306777646389e+00
4.90202140309155521e+00
4.96979785969083920e+00
0.00000000000000000e+00
4.35386444708679932e+00
4.39072532699167883e+00
4.42996432818073593e+00
4.47158145065398482e+00
4.51557669441141574e+00
4.56195005945303045e+00
4.61070154577883429e+00
4.66183115338882637e+00
4.71533888228300047e+00
4.77122473246135836e+00
4.82948870392390539e+00
4.89013079667063089e+00
4.95315101070154817e+00
5.01854934601665015e+00
5.08632580261593148e+00
0.00000000000000000e+00
4.47514863258026097e+00
4.51200951248513071e+00
4.55124851367419314e+00
4.59286563614744470e+00
4.63686087990487561e+00
4.68323424494649387e+00
4.73198573127229771e+00
4.78311533888228180e+00
4.83662306777645767e+00
4.89250891795481646e+00
4.95077288941736526e+00
5.01141498216408277e+00
5.07443519619500805e+00
5.13983353151010913e+00
5.20760998810939402e+00
0.00000000000000000e+00
4.60118906064209110e+00
4.63804994054696618e+00
4.67728894173603127e+00
4.71890606420927394e+00
4.76290130796670574e+00
4.80927467300832401e+00
4.85802615933412341e+00
4.90915576694411548e+00
4.96266349583829225e+00
5.01854934601664837e+00
5.07681331747919540e+00
5.13745541022592178e+00
5.20047562425684173e+00
5.26587395957194015e+00
5.33365041617122060e+00
0.00000000000000000e+00
4.73198573127229416e+00
4.76884661117717190e+00
4.80808561236622900e+00
4.84970273483948056e+00
4.89369797859690792e+00
4.94007134363852618e+00
4.98882282996432824e+00
5.03995243757431677e+00
5.09346016646849353e+00
5.14934601664685143e+00
5.20760998810939224e+00
5.26825208085613017e+00
5.33127229488704391e+00
5.39667063020213966e+00
5.46444708680142632e+00
0.00000000000000000e+00
4.86753864447086304e+00
4.90439952437573812e+00
4.94363852556480321e+00
4.98525564803804766e+00
5.02925089179547768e+00
5.07562425683709950e+00
5.12437574316289801e+00
5.17550535077288387e+00
5.22901307966706241e+00
5.28489892984541321e+00
5.34316290130796201e+00
5.40380499405469550e+00
5.46682520808561279e+00
5.53222354340071298e+00
5.59999999999999520e+00
</DataArray>
</PointData>
</Piece>
</StructuredGrid>
</VTKFile>
