<?xml version="1.0"?>
<VTKFile type="StructuredGrid">
<StructuredGrid WholeExtent="0 15 14 29 0 0 ">
<Piece Extent="0 15 14 29 0 0 ">
<Points>
<DataArray type="Float64" Name="coordinate" NumberOfComponents="3" format="ascii">
0.00000000000000000e+00 0.00000000000000000e+00 0 
0.00000000000000000e+00 0.00000000000000000e+00 0 
0.00000000000000000e+00 0.00000000000000000e+00 0 
0.00000000000000000e+00 0.00000000000000000e+00 0 
0.00000000000000000e+00 0.00000000000000000e+00 0 
0.00000000000000000e+00 0.00000000000000000e+00 0 
0.00000000000000000e+00 0.00000000000000000e+00 0 
0.00000000000000000e+00 0.00000000000000000e+00 0 
0.00000000000000000e+00 0.00000000000000000e+00 0 
0.00000000000000000e+00 0.00000000000000000e+00 0 
0.00000000000000000e+00 0.00000000000000000e+00 0 
0.00000000000000000e+00 0.00000000000000000e+00 0 
0.00000000000000000e+00 0.00000000000000000e+00 0 
0.00000000000000000e+00 0.00000000000000000e+00 0 
0.00000000000000000e+00 0.00000000000000000e+00 0 
0.00000000000000000e+00 0.00000000000000000e+00 0 
0.00000000000000000e+00 5.17241379310344862e-01 0 
3.44827586206896547e-02 5.17241379310344862e-01 0 
6.89655172413793094e-02 5.17241379310344862e-01 0 
1.03448275862068964e-01 5.17241379310344862e-01 0 
1.37931034482758619e-01 5.17241379310344862e-01 0 
1.72413793103448287e-01 5.17241379310344862e-01 0 
2.06896551724137928e-01 5.17241379310344862e-01 0 
2.41379310344827569e-01 5.17241379310344862e-01 0 
2.75862068965517238e-01 5.17241379310344862e-01 0 
3.10344827586206906e-01 5.17241379310344862e-01 0 
3.44827586206896575e-01 5.17241379310344862e-01 0 
3.79310344827586188e-01 5.17241379310344862e-01 0 
4.13793103448275856e-01 5.17241379310344862e-01 0 
4.48275862068965525e-01 5.17241379310344862e-01 0 
4.82758620689655138e-01 5.17241379310344862e-01 0 
0.00000000000000000e+00 0.00000000000000000e+00 0 
0.00000000000000000e+00 5.51724137931034475e-01 0 
3.44827586206896547e-02 5.51724137931034475e-01 0 
6.89655172413793094e-02 5.51724137931034475e-01 0 
1.03448275862068964e-01 5.51724137931034475e-01 0 
1.37931034482758619e-01 5.51724137931034475e-01 0 
1.72413793103448287e-01 5.51724137931034475e-01 0 
2.06896551724137928e-01 5.51724137931034475e-01 0 
2.41379310344827569e-01 5.51724137931034475e-01 0 
2.75862068965517238e-01 5.51724137931034475e-01 0 
3.10344827586206906e-01 5.51724137931034475e-01 0 
3.44827586206896575e-01 5.51724137931034475e-01 0 
3.79310344827586188e-01 5.51724137931034475e-01 0 
4.13793103448275856e-01 5.51724137931034475e-01 0 
4.48275862068965525e-01 5.51724137931034475e-01 0 
4.82758620689655138e-01 5.51724137931034475e-01 0 
0.00000000000000000e+00 0.00000000000000000e+00 0 
0.00000000000000000e+00 5.86206896551724088e-01 0 
3.44827586206896547e-02 5.86206896551724088e-01 0 
6.89655172413793094e-02 5.86206896551724088e-01 0 
1.03448275862068964e-01 5.86206896551724088e-01 0 
1.37931034482758619e-01 5.86206896551724088e-01 0 
1.72413793103448287e-01 5.86206896551724088e-01 0 
2.06896551724137928e-01 5.86206896551724088e-01 0 
2.41379310344827569e-01 5.86206896551724088e-01 0 
2.75862068965517238e-01 5.86206896551724088e-01 0 
3.10344827586206906e-01 5.86206896551724088e-01 0 
3.44827586206896575e-01 5.86206896551724088e-01 0 
3.79310344827586188e-01 5.86206896551724088e-01 0 
4.13793103448275856e-01 5.86206896551724088e-01 0 
4.48275862068965525e-01 5.86206896551724088e-01 0 
4.82758620689655138e-01 5.86206896551724088e-01 0 
0.00000000000000000e+00 0.00000000000000000e+00 0 
0.00000000000000000e+00 6.20689655172413812e-01 0 
3.44827586206896547e-02 6.20689655172413812e-01 0 
6.89655172413793094e-02 6.20689655172413812e-01 0 
1.03448275862068964e-01 6.20689655172413812e-01 0 
1.37931034482758619e-01 6.20689655172413812e-01 0 
1.72413793103448287e-01 6.20689655172413812e-01 0 
2.06896551724137928e-01 6.20689655172413812e-01 0 
2.41379310344827569e-01 6.20689655172413812e-01 0 
2.75862068965517238e-01 6.20689655172413812e-01 0 
3.10344827586206906e-01 6.20689655172413812e-01 0 
3.44827586206896575e-01 6.20689655172413812e-01 0 
3.79310344827586188e-01 6.20689655172413812e-01 0 
4.13793103448275856e-01 6.20689655172413812e-01 0 
4.48275862068965525e-01 6.20689655172413812e-01 0 
4.82758620689655138e-01 6.20689655172413812e-01 0 
0.00000000000000000e+00 0.00000000000000000e+00 0 
0.00000000000000000e+00 6.55172413793103425e-01 0 
3.44827586206896547e-02 6.55172413793103425e-01 0 
6.89655172413793094e-02 6.55172413793103425e-01 0 
1.03448275862068964e-01 6.55172413793103425e-01 0 
1.37931034482758619e-01 6.55172413793103425e-01 0 
1.72413793103448287e-01 6.55172413793103425e-01 0 
2.06896551724137928e-01 6.55172413793103425e-01 0 
2.41379310344827569e-01 6.55172413793103425e-01 0 
2.75862068965517238e-01 6.55172413793103425e-01 0 
3.10344827586206906e-01 6.55172413793103425e-01 0 
3.44827586206896575e-01 6.55172413793103425e-01 0 
3.79310344827586188e-01 6.55172413793103425e-01 0 
4.13793103448275856e-01 6.55172413793103425e-01 0 
4.48275862068965525e-01 6.55172413793103425e-01 0 
4.82758620689655138e-01 6.55172413793103425e-01 0 
0.00000000000000000e+00 0.00000000000000000e+00 0 
0.00000000000000000e+00 6.89655172413793149e-01 0 
3.44827586206896547e-02 6.89655172413793149e-01 0 
6.89655172413793094e-02 6.89655172413793149e-01 0 
1.03448275862068964e-01 6.89655172413793149e-01 0 
1.37931034482758619e-01 6.89655172413793149e-01 0 
1.72413793103448287e-01 6.89655172413793149e-01 0 
2.06896551724137928e-01 6.89655172413793149e-01 0 
2.41379310344827569e-01 6.89655172413793149e-01 0 
2.75862068965517238e-01 6.89655172413793149e-01 0 
3.10344827586206906e-01 6.89655172413793149e-01 0 
3.44827586206896575e-01 6.89655172413793149e-01 0 
3.79310344827586188e-01 6.89655172413793149e-01 0 
4.13793103448275856e-01 6.89655172413793149e-01 0 
4.48275862068965525e-01 6.89655172413793149e-01 0 
4.82758620689655138e-01 6.89655172413793149e-01 0 
0.00000000000000000e+00 0.00000000000000000e+00 0 
0.00000000000000000e+00 7.24137931034482762e-01 0 
3.44827586206896547e-02 7.24137931034482762e-01 0 
6.89655172413793094e-02 7.24137931034482762e-01 0 
1.03448275862068964e-01 7.24137931034482762e-01 0 
1.37931034482758619e-01 7.24137931034482762e-01 0 
1.72413793103448287e-01 7.24137931034482762e-01 0 
2.06896551724137928e-01 7.24137931034482762e-01 0 
2.41379310344827569e-01 7.24137931034482762e-01 0 
2.75862068965517238e-01 7.24137931034482762e-01 0 
3.10344827586206906e-01 7.24137931034482762e-01 0 
3.44827586206896575e-01 7.24137931034482762e-01 0 
3.79310344827586188e-01 7.24137931034482762e-01 0 
4.13793103448275856e-01 7.24137931034482762e-01 0 
4.48275862068965525e-01 7.24137931034482762e-01 0 
4.82758620689655138e-01 7.24137931034482762e-01 0 
0.00000000000000000e+00 0.00000000000000000e+00 0 
0.00000000000000000e+00 7.58620689655172376e-01 0 
3.44827586206896547e-02 7.58620689655172376e-01 0 
6.89655172413793094e-02 7.58620689655172376e-01 0 
1.03448275862068964e-01 7.58620689655172376e-01 0 
1.37931034482758619e-01 7.58620689655172376e-01 0 
1.72413793103448287e-01 7.58620689655172376e-01 0 
2.06896551724137928e-01 7.58620689655172376e-01 0 
2.41379310344827569e-01 7.58620689655172376e-01 0 
2.75862068965517238e-01 7.58620689655172376e-01 0 
3.10344827586206906e-01 7.58620689655172376e-01 0 
3.44827586206896575e-01 7.58620689655172376e-01 0 
3.79310344827586188e-01 7.58620689655172376e-01 0 
4.13793103448275856e-01 7.58620689655172376e-01 0 
4.48275862068965525e-01 7.58620689655172376e-01 0 
4.82758620689655138e-01 7.58620689655172376e-01 0 
0.00000000000000000e+00 0.00000000000000000e+00 0 
0.00000000000000000e+00 7.93103448275862100e-01 0 
3.44827586206896547e-02 7.93103448275862100e-01 0 
6.89655172413793094e-02 7.93103448275862100e-01 0 
1.03448275862068964e-01 7.93103448275862100e-01 0 
1.37931034482758619e-01 7.93103448275862100e-01 0 
1.72413793103448287e-01 7.93103448275862100e-01 0 
2.06896551724137928e-01 7.93103448275862100e-01 0 
2.41379310344827569e-01 7.93103448275862100e-01 0 
2.75862068965517238e-01 7.93103448275862100e-01 0 
3.10344827586206906e-01 7.93103448275862100e-01 0 
3.44827586206896575e-01 7.93103448275862100e-01 0 
3.79310344827586188e-01 7.93103448275862100e-01 0 
4.13793103448275856e-01 7.93103448275862100e-01 0 
4.48275862068965525e-01 7.93103448275862100e-01 0 
4.82758620689655138e-01 7.93103448275862100e-01 0 
0.00000000000000000e+00 0.00000000000000000e+00 0 
0.00000000000000000e+00 8.27586206896551713e-01 0 
3.44827586206896547e-02 8.27586206896551713e-01 0 
6.89655172413793094e-02 8.27586206896551713e-01 0 
1.03448275862068964e-01 8.27586206896551713e-01 0 
1.37931034482758619e-01 8.27586206896551713e-01 0 
1.72413793103448287e-01 8.27586206896551713e-01 0 
2.06896551724137928e-01 8.27586206896551713e-01 0 
2.41379310344827569e-01 8.27586206896551713e-01 0 
2.75862068965517238e-01 8.27586206896551713e-01 0 
3.10344827586206906e-01 8.27586206896551713e-01 0 
3.44827586206896575e-01 8.27586206896551713e-01 0 
3.79310344827586188e-01 8.27586206896551713e-01 0 
4.13793103448275856e-01 8.27586206896551713e-01 0 
4.48275862068965525e-01 8.27586206896551713e-01 0 
4.82758620689655138e-01 8.27586206896551713e-01 0 
0.00000000000000000e+00 0.00000000000000000e+00 0 
0.00000000000000000e+00 8.62068965517241326e-01 0 
3.44827586206896547e-02 8.62068965517241326e-01 0 
6.89655172413793094e-02 8.62068965517241326e-01 0 
1.03448275862068964e-01 8.62068965517241326e-01 0 
1.37931034482758619e-01 8.62068965517241326e-01 0 
1.72413793103448287e-01 8.62068965517241326e-01 0 
2.06896551724137928e-01 8.62068965517241326e-01 0 
2.41379310344827569e-01 8.62068965517241326e-01 0 
2.75862068965517238e-01 8.62068965517241326e-01 0 
3.10344827586206906e-01 8.62068965517241326e-01 0 
3.44827586206896575e-01 8.62068965517241326e-01 0 
3.79310344827586188e-01 8.62068965517241326e-01 0 
4.13793103448275856e-01 8.62068965517241326e-01 0 
4.48275862068965525e-01 8.62068965517241326e-01 0 
4.82758620689655138e-01 8.62068965517241326e-01 0 
0.00000000000000000e+00 0.00000000000000000e+00 0 
0.00000000000000000e+00 8.96551724137931050e-01 0 
3.44827586206896547e-02 8.96551724137931050e-01 0 
6.89655172413793094e-02 8.96551724137931050e-01 0 
1.03448275862068964e-01 8.96551724137931050e-01 0 
1.37931034482758619e-01 8.96551724137931050e-01 0 
1.72413793103448287e-01 8.96551724137931050e-01 0 
2.06896551724137928e-01 8.96551724137931050e-01 0 
2.41379310344827569e-01 8.96551724137931050e-01 0 
2.75862068965517238e-01 8.96551724137931050e-01 0 
3.10344827586206906e-01 8.96551724137931050e-01 0 
3.44827586206896575e-01 8.96551724137931050e-01 0 
3.79310344827586188e-01 8.96551724137931050e-01 0 
4.13793103448275856e-01 8.96551724137931050e-01 0 
4.48275862068965525e-01 8.96551724137931050e-01 0 
4.82758620689655138e-01 8.96551724137931050e-01 0 
0.00000000000000000e+00 0.00000000000000000e+00 0 
0.00000000000000000e+00 9.31034482758620663e-01 0 
3.44827586206896547e-02 9.31034482758620663e-01 0 
6.89655172413793094e-02 9.31034482758620663e-01 0 
1.03448275862068964e-01 9.31034482758620663e-01 0 
1.37931034482758619e-01 9.31034482758620663e-01 0 
1.72413793103448287e-01 9.31034482758620663e-01 0 
2.06896551724137928e-01 9.31034482758620663e-01 0 
2.41379310344827569e-01 9.31034482758620663e-01 0 
2.75862068965517238e-01 9.31034482758620663e-01 0 
3.10344827586206906e-01 9.31034482758620663e-01 0 
3.44827586206896575e-01 9.31034482758620663e-01 0 
3.79310344827586188e-01 9.31034482758620663e-01 0 
4.13793103448275856e-01 9.31034482758620663e-01 0 
4.48275862068965525e-01 9.31034482758620663e-01 0 
4.82758620689655138e-01 9.31034482758620663e-01 0 
0.00000000000000000e+00 0.00000000000000000e+00 0 
0.00000000000000000e+00 9.65517241379310276e-01 0 
3.44827586206896547e-02 9.65517241379310276e-01 0 
6.89655172413793094e-02 9.65517241379310276e-01 0 
1.03448275862068964e-01 9.65517241379310276e-01 0 
1.37931034482758619e-01 9.65517241379310276e-01 0 
1.72413793103448287e-01 9.65517241379310276e-01 0 
2.06896551724137928e-01 9.65517241379310276e-01 0 
2.41379310344827569e-01 9.65517241379310276e-01 0 
2.75862068965517238e-01 9.65517241379310276e-01 0 
3.10344827586206906e-01 9.65517241379310276e-01 0 
3.44827586206896575e-01 9.65517241379310276e-01 0 
3.79310344827586188e-01 9.65517241379310276e-01 0 
4.13793103448275856e-01 9.65517241379310276e-01 0 
4.48275862068965525e-01 9.65517241379310276e-01 0 
4.82758620689655138e-01 9.65517241379310276e-01 0 
0.00000000000000000e+00 0.00000000000000000e+00 0 
0.00000000000000000e+00 1.00000000000000000e+00 0 
3.44827586206896547e-02 1.00000000000000000e+00 0 
6.89655172413793094e-02 1.00000000000000000e+00 0 
1.03448275862068964e-01 1.00000000000000000e+00 0 
1.37931034482758619e-01 1.00000000000000000e+00 0 
1.72413793103448287e-01 1.00000000000000000e+00 0 
2.06896551724137928e-01 1.00000000000000000e+00 0 
2.41379310344827569e-01 1.00000000000000000e+00 0 
2.75862068965517238e-01 1.00000000000000000e+00 0 
3.10344827586206906e-01 1.00000000000000000e+00 0 
3.44827586206896575e-01 1.00000000000000000e+00 0 
3.79310344827586188e-01 1.00000000000000000e+00 0 
4.13793103448275856e-01 1.00000000000000000e+00 0 
4.48275862068965525e-01 1.00000000000000000e+00 0 
4.82758620689655138e-01 1.00000000000000000e+00 0 
0.00000000000000000e+00 0.00000000000000000e+00 0 
</DataArray>
</Points>
<PointData>
<DataArray type="Float64" Name="heat" NumberOfComponents="1" format="ascii">
0.00000000000000000e+00
0.00000000000000000e+00
0.00000000000000000e+00
0.00000000000000000e+00
0.00000000000000000e+00
0.00000000000000000e+00
0.00000000000000000e+00
0.00000000000000000e+00
0.00000000000000000e+00
0.00000000000000000e+00
0.00000000000000000e+00
0.00000000000000000e+00
0.00000000000000000e+00
0.00000000000000000e+00
0.00000000000000000e+00
0.00000000000000000e+00
5.13507728894173532e+00
5.13626634958382411e+00
5.13983353151010736e+00
5.14577883472056641e+00
5.15410225921521814e+00
5.16480380499405367e+00
5.17788347205707744e+00
5.19334126040427790e+00
5.21117717003566927e+00
5.23139120095124532e+00
5.25398335315101139e+00
5.27895362663495504e+00
5.30630202140308782e+00
5.33602853745541150e+00
5.36813317479190921e+00
0.00000000000000000e+00
5.20879904875148458e+00
5.20998810939358048e+00
5.21355529131985307e+00
5.21950059453031745e+00
5.22782401902496918e+00
5.23852556480380294e+00
5.25160523186682671e+00
5.26706302021402273e+00
5.28489892984541942e+00
5.30511296076099548e+00
5.32770511296076421e+00
5.35267538644470608e+00
5.38002378121284153e+00
5.40975029726515899e+00
5.44185493460166292e+00
0.00000000000000000e+00
5.28727705112960411e+00
5.28846611177170001e+00
5.29203329369797615e+00
5.29797859690843875e+00
5.30630202140309049e+00
5.31700356718192335e+00
5.33008323424494002e+00
5.34554102259215114e+00
5.36337693222354073e+00
5.38359096313911767e+00
5.40618311533888107e+00
5.43115338882282828e+00
5.45850178359096105e+00
5.48822829964328029e+00
5.52033293697978777e+00
0.00000000000000000e+00
5.37051129607609479e+00
5.37170035671819068e+00
5.37526753864447127e+00
5.38121284185493209e+00
5.38953626634958116e+00
5.40023781212841758e+00
5.41331747919143602e+00
5.42877526753864093e+00
5.44661117717003496e+00
5.46682520808560923e+00
5.48941736028537086e+00
5.51438763376932162e+00
5.54173602853745795e+00
5.57146254458977364e+00
5.60356718192627579e+00
0.00000000000000000e+00
5.45850178359096105e+00
5.45969084423305606e+00
5.46325802615933931e+00
5.46920332936979570e+00
5.47752675386444299e+00
5.48822829964328118e+00
5.50130796670629874e+00
5.51676575505350630e+00
5.53460166468489767e+00
5.55481569560047372e+00
5.57740784780023446e+00
5.60237812128418611e+00
5.62972651605231800e+00
5.65945303210463724e+00
5.69155766944113850e+00
0.00000000000000000e+00
5.55124851367419225e+00
5.55243757431629259e+00
5.55600475624257051e+00
5.56195005945302867e+00
5.57027348394768396e+00
5.58097502972651593e+00
5.59405469678953438e+00
5.60951248513673750e+00
5.62734839476812798e+00
5.64756242568370226e+00
5.67015457788346922e+00
5.69512485136741731e+00
5.72247324613555719e+00
5.75219976218786755e+00
5.78430439952437414e+00
0.00000000000000000e+00
5.64875148632579904e+00
5.64994054696789760e+00
5.65350772889416842e+00
5.65945303210463191e+00
5.66777645659927920e+00
5.67847800237812006e+00
5.69155766944113850e+00
5.70701545778834607e+00
5.72485136741973655e+00
5.74506539833531438e+00
5.76765755053507423e+00
5.79262782401902143e+00
5.81997621878715954e+00
5.84970273483947611e+00
5.88180737217597738e+00
0.00000000000000000e+00
5.75101070154577876e+00
5.75219976218786933e+00
5.75576694411414636e+00
5.76171224732461518e+00
5.77003567181926158e+00
5.78073721759809267e+00
5.79381688466111733e+00
5.80927467300831868e+00
5.82711058263971360e+00
5.84732461355529676e+00
5.86991676575505750e+00
5.89488703923899759e+00
5.92223543400713126e+00
5.95196195005944695e+00
5.98406658739595265e+00
0.00000000000000000e+00
5.85802615933411897e+00
5.85921521997622197e+00
5.86278240190249367e+00
5.86872770511296160e+00
5.87705112960760534e+00
5.88775267538644620e+00
5.90083234244946375e+00
5.91629013079666954e+00
5.93412604042806002e+00
5.95434007134363608e+00
5.97693222354340126e+00
6.00190249702734846e+00
6.02925089179547857e+00
6.05897740784780403e+00
6.09108204518430263e+00
0.00000000000000000e+00
5.96979785969083299e+00
5.97098692033293865e+00
5.97455410225921213e+00
5.98049940546968006e+00
5.98882282996432647e+00
5.99952437574315756e+00
6.01260404280618488e+00
6.02806183115338889e+00
6.04589774078478293e+00
6.06611177170035276e+00
6.08870392390011794e+00
6.11367419738407047e+00
6.14102259215219526e+00
6.17074910820451894e+00
6.20285374554102287e+00
0.00000000000000000e+00
6.08632580261593326e+00
6.08751486325802471e+00
6.09108204518430441e+00
6.09702734839476879e+00
6.10535077288941075e+00
6.11605231866824806e+00
6.12913198573126827e+00
6.14458977407847673e+00
6.16242568370987076e+00
6.18263971462544415e+00
6.20523186682520489e+00
6.23020214030915565e+00
6.25755053507728931e+00
6.28727705112960589e+00
6.31938168846611070e+00
0.00000000000000000e+00
6.20760998810938869e+00
6.20879904875148370e+00
6.21236623067776428e+00
6.21831153388822599e+00
6.22663495838287595e+00
6.23733650416170882e+00
6.25041617122472815e+00
6.26587395957193749e+00
6.28370986920333419e+00
6.30392390011890225e+00
6.32651605231866565e+00
6.35148632580261641e+00
6.37883472057074830e+00
6.40856123662306398e+00
6.44066587395957324e+00
0.00000000000000000e+00
6.33365041617121705e+00
6.33483947681331649e+00
6.33840665873959797e+00
6.34435196195006235e+00
6.35267538644470697e+00
6.36337693222353984e+00
6.37645659928656450e+00
6.39191438763376762e+00
6.40975029726515722e+00
6.42996432818073327e+00
6.45255648038049756e+00
6.47752675386444565e+00
6.50487514863257932e+00
6.53460166468489323e+00
6.56670630202140426e+00
0.00000000000000000e+00
6.46444708680142632e+00
6.46563614744351778e+00
6.46920332936980280e+00
6.47514863258025386e+00
6.48347205707491003e+00
6.49417360285374290e+00
6.50725326991676578e+00
6.52271105826396980e+00
6.54054696789536383e+00
6.56076099881093988e+00
6.58335315101070950e+00
6.60832342449464338e+00
6.63567181926278327e+00
6.66539833531510340e+00
6.69750297265160555e+00
0.00000000000000000e+00
6.59999999999999343e+00
6.60118906064208755e+00
6.60475624256836813e+00
6.61070154577883251e+00
6.61902497027347980e+00
6.62972651605231267e+00
6.64280618311533111e+00
6.65826397146254223e+00
6.67609988109392472e+00
6.69631391200950787e+00
6.71890606420927217e+00
6.74387633769321848e+00
6.77122473246135304e+00
6.80095124851367228e+00
6.83305588585017087e+00
0.00000000000000000e+00
</DataArray>
</PointData>
</Piece>
</StructuredGrid>
</VTKFile>
