<?xml version="1.0"?>
<VTKFile type="StructuredGrid">
<StructuredGrid WholeExtent="0 15 0 15 0 0 ">
<Piece Extent="0 15 0 15 0 0 ">
<Points>
<DataArray type="Float64" Name="coordinate" NumberOfComponents="3" format="ascii">
0.00000000000000000e+00 0.00000000000000000e+00 0 
3.44827586206896547e-02 0.00000000000000000e+00 0 
6.89655172413793094e-02 0.00000000000000000e+00 0 
1.03448275862068964e-01 0.00000000000000000e+00 0 
1.37931034482758619e-01 0.00000000000000000e+00 0 
1.72413793103448287e-01 0.00000000000000000e+00 0 
2.06896551724137928e-01 0.00000000000000000e+00 0 
2.41379310344827569e-01 0.00000000000000000e+00 0 
2.75862068965517238e-01 0.00000000000000000e+00 0 
3.10344827586206906e-01 0.00000000000000000e+00 0 
3.44827586206896575e-01 0.00000000000000000e+00 0 
3.79310344827586188e-01 0.00000000000000000e+00 0 
4.13793103448275856e-01 0.00000000000000000e+00 0 
4.48275862068965525e-01 0.00000000000000000e+00 0 
4.82758620689655138e-01 0.00000000000000000e+00 0 
0.00000000000000000e+00 0.00000000000000000e+00 0 
0.00000000000000000e+00 3.44827586206896547e-02 0 
3.44827586206896547e-02 3.44827586206896547e-02 0 
6.89655172413793094e-02 3.44827586206896547e-02 0 
1.03448275862068964e-01 3.44827586206896547e-02 0 
1.37931034482758619e-01 3.44827586206896547e-02 0 
1.72413793103448287e-01 3.44827586206896547e-02 0 
2.06896551724137928e-01 3.44827586206896547e-02 0 
2.41379310344827569e-01 3.44827586206896547e-02 0 
2.75862068965517238e-01 3.44827586206896547e-02 0 
3.10344827586206906e-01 3.44827586206896547e-02 0 
3.44827586206896575e-01 3.44827586206896547e-02 0 
3.79310344827586188e-01 3.44827586206896547e-02 0 
4.13793103448275856e-01 3.44827586206896547e-02 0 
4.48275862068965525e-01 3.44827586206896547e-02 0 
4.82758620689655138e-01 3.44827586206896547e-02 0 
0.00000000000000000e+00 0.00000000000000000e+00 0 
0.00000000000000000e+00 6.89655172413793094e-02 0 
3.44827586206896547e-02 6.89655172413793094e-02 0 
6.89655172413793094e-02 6.89655172413793094e-02 0 
1.03448275862068964e-01 6.89655172413793094e-02 0 
1.37931034482758619e-01 6.89655172413793094e-02 0 
1.72413793103448287e-01 6.89655172413793094e-02 0 
2.06896551724137928e-01 6.89655172413793094e-02 0 
2.41379310344827569e-01 6.89655172413793094e-02 0 
2.75862068965517238e-01 6.89655172413793094e-02 0 
3.10344827586206906e-01 6.89655172413793094e-02 0 
3.44827586206896575e-01 6.89655172413793094e-02 0 
3.79310344827586188e-01 6.89655172413793094e-02 0 
4.13793103448275856e-01 6.89655172413793094e-02 0 
4.48275862068965525e-01 6.89655172413793094e-02 0 
4.82758620689655138e-01 6.89655172413793094e-02 0 
0.00000000000000000e+00 0.00000000000000000e+00 0 
0.00000000000000000e+00 1.03448275862068964e-01 0 
3.44827586206896547e-02 1.03448275862068964e-01 0 
6.89655172413793094e-02 1.03448275862068964e-01 0 
1.03448275862068964e-01 1.03448275862068964e-01 0 
1.37931034482758619e-01 1.03448275862068964e-01 0 
1.72413793103448287e-01 1.03448275862068964e-01 0 
2.06896551724137928e-01 1.03448275862068964e-01 0 
2.41379310344827569e-01 1.03448275862068964e-01 0 
2.75862068965517238e-01 1.03448275862068964e-01 0 
3.10344827586206906e-01 1.03448275862068964e-01 0 
3.44827586206896575e-01 1.03448275862068964e-01 0 
3.79310344827586188e-01 1.03448275862068964e-01 0 
4.13793103448275856e-01 1.03448275862068964e-01 0 
4.48275862068965525e-01 1.03448275862068964e-01 0 
4.82758620689655138e-01 1.03448275862068964e-01 0 
0.00000000000000000e+00 0.00000000000000000e+00 0 
0.00000000000000000e+00 1.37931034482758619e-01 0 
3.44827586206896547e-02 1.37931034482758619e-01 0 
6.89655172413793094e-02 1.37931034482758619e-01 0 
1.03448275862068964e-01 1.37931034482758619e-01 0 
1.37931034482758619e-01 1.37931034482758619e-01 0 
1.72413793103448287e-01 1.37931034482758619e-01 0 
2.06896551724137928e-01 1.37931034482758619e-01 0 
2.41379310344827569e-01 1.37931034482758619e-01 0 
2.75862068965517238e-01 1.37931034482758619e-01 0 
3.10344827586206906e-01 1.37931034482758619e-01 0 
3.44827586206896575e-01 1.37931034482758619e-01 0 
3.79310344827586188e-01 1.37931034482758619e-01 0 
4.13793103448275856e-01 1.37931034482758619e-01 0 
4.48275862068965525e-01 1.37931034482758619e-01 0 
4.82758620689655138e-01 1.37931034482758619e-01 0 
0.00000000000000000e+00 0.00000000000000000e+00 0 
0.00000000000000000e+00 1.72413793103448287e-01 0 
3.44827586206896547e-02 1.72413793103448287e-01 0 
6.89655172413793094e-02 1.72413793103448287e-01 0 
1.03448275862068964e-01 1.72413793103448287e-01 0 
1.37931034482758619e-01 1.72413793103448287e-01 0 
1.72413793103448287e-01 1.72413793103448287e-01 0 
2.06896551724137928e-01 1.72413793103448287e-01 0 
2.41379310344827569e-01 1.72413793103448287e-01 0 
2.75862068965517238e-01 1.72413793103448287e-01 0 
3.10344827586206906e-01 1.72413793103448287e-01 0 
3.44827586206896575e-01 1.72413793103448287e-01 0 
3.79310344827586188e-01 1.72413793103448287e-01 0 
4.13793103448275856e-01 1.72413793103448287e-01 0 
4.48275862068965525e-01 1.72413793103448287e-01 0 
4.82758620689655138e-01 1.72413793103448287e-01 0 
0.00000000000000000e+00 0.00000000000000000e+00 0 
0.00000000000000000e+00 2.06896551724137928e-01 0 
3.44827586206896547e-02 2.06896551724137928e-01 0 
6.89655172413793094e-02 2.06896551724137928e-01 0 
1.03448275862068964e-01 2.06896551724137928e-01 0 
1.37931034482758619e-01 2.06896551724137928e-01 0 
1.72413793103448287e-01 2.06896551724137928e-01 0 
2.06896551724137928e-01 2.06896551724137928e-01 0 
2.41379310344827569e-01 2.06896551724137928e-01 0 
2.75862068965517238e-01 2.06896551724137928e-01 0 
3.10344827586206906e-01 2.06896551724137928e-01 0 
3.44827586206896575e-01 2.06896551724137928e-01 0 
3.79310344827586188e-01 2.06896551724137928e-01 0 
4.13793103448275856e-01 2.06896551724137928e-01 0 
4.48275862068965525e-01 2.06896551724137928e-01 0 
4.82758620689655138e-01 2.06896551724137928e-01 0 
0.00000000000000000e+00 0.00000000000000000e+00 0 
0.00000000000000000e+00 2.41379310344827569e-01 0 
3.44827586206896547e-02 2.41379310344827569e-01 0 
6.89655172413793094e-02 2.41379310344827569e-01 0 
1.03448275862068964e-01 2.41379310344827569e-01 0 
1.37931034482758619e-01 2.41379310344827569e-01 0 
1.72413793103448287e-01 2.41379310344827569e-01 0 
2.06896551724137928e-01 2.41379310344827569e-01 0 
2.41379310344827569e-01 2.41379310344827569e-01 0 
2.75862068965517238e-01 2.41379310344827569e-01 0 
3.10344827586206906e-01 2.41379310344827569e-01 0 
3.44827586206896575e-01 2.41379310344827569e-01 0 
3.79310344827586188e-01 2.41379310344827569e-01 0 
4.13793103448275856e-01 2.41379310344827569e-01 0 
4.48275862068965525e-01 2.41379310344827569e-01 0 
4.82758620689655138e-01 2.41379310344827569e-01 0 
0.00000000000000000e+00 0.00000000000000000e+00 0 
0.00000000000000000e+00 2.75862068965517238e-01 0 
3.44827586206896547e-02 2.75862068965517238e-01 0 
6.89655172413793094e-02 2.75862068965517238e-01 0 
1.03448275862068964e-01 2.75862068965517238e-01 0 
1.37931034482758619e-01 2.75862068965517238e-01 0 
1.72413793103448287e-01 2.75862068965517238e-01 0 
2.06896551724137928e-01 2.75862068965517238e-01 0 
2.41379310344827569e-01 2.75862068965517238e-01 0 
2.75862068965517238e-01 2.75862068965517238e-01 0 
3.10344827586206906e-01 2.75862068965517238e-01 0 
3.44827586206896575e-01 2.75862068965517238e-01 0 
3.79310344827586188e-01 2.75862068965517238e-01 0 
4.13793103448275856e-01 2.75862068965517238e-01 0 
4.48275862068965525e-01 2.75862068965517238e-01 0 
4.82758620689655138e-01 2.75862068965517238e-01 0 
0.00000000000000000e+00 0.00000000000000000e+00 0 
0.00000000000000000e+00 3.10344827586206906e-01 0 
3.44827586206896547e-02 3.10344827586206906e-01 0 
6.89655172413793094e-02 3.10344827586206906e-01 0 
1.03448275862068964e-01 3.10344827586206906e-01 0 
1.37931034482758619e-01 3.10344827586206906e-01 0 
1.72413793103448287e-01 3.10344827586206906e-01 0 
2.06896551724137928e-01 3.10344827586206906e-01 0 
2.41379310344827569e-01 3.10344827586206906e-01 0 
2.75862068965517238e-01 3.10344827586206906e-01 0 
3.10344827586206906e-01 3.10344827586206906e-01 0 
3.44827586206896575e-01 3.10344827586206906e-01 0 
3.79310344827586188e-01 3.10344827586206906e-01 0 
4.13793103448275856e-01 3.10344827586206906e-01 0 
4.48275862068965525e-01 3.10344827586206906e-01 0 
4.82758620689655138e-01 3.10344827586206906e-01 0 
0.00000000000000000e+00 0.00000000000000000e+00 0 
0.00000000000000000e+00 3.44827586206896575e-01 0 
3.44827586206896547e-02 3.44827586206896575e-01 0 
6.89655172413793094e-02 3.44827586206896575e-01 0 
1.03448275862068964e-01 3.44827586206896575e-01 0 
1.37931034482758619e-01 3.44827586206896575e-01 0 
1.72413793103448287e-01 3.44827586206896575e-01 0 
2.06896551724137928e-01 3.44827586206896575e-01 0 
2.41379310344827569e-01 3.44827586206896575e-01 0 
2.75862068965517238e-01 3.44827586206896575e-01 0 
3.10344827586206906e-01 3.44827586206896575e-01 0 
3.44827586206896575e-01 3.44827586206896575e-01 0 
3.79310344827586188e-01 3.44827586206896575e-01 0 
4.13793103448275856e-01 3.44827586206896575e-01 0 
4.48275862068965525e-01 3.44827586206896575e-01 0 
4.82758620689655138e-01 3.44827586206896575e-01 0 
0.00000000000000000e+00 0.00000000000000000e+00 0 
0.00000000000000000e+00 3.79310344827586188e-01 0 
3.44827586206896547e-02 3.79310344827586188e-01 0 
6.89655172413793094e-02 3.79310344827586188e-01 0 
1.03448275862068964e-01 3.79310344827586188e-01 0 
1.37931034482758619e-01 3.79310344827586188e-01 0 
1.72413793103448287e-01 3.79310344827586188e-01 0 
2.06896551724137928e-01 3.79310344827586188e-01 0 
2.41379310344827569e-01 3.79310344827586188e-01 0 
2.75862068965517238e-01 3.79310344827586188e-01 0 
3.10344827586206906e-01 3.79310344827586188e-01 0 
3.44827586206896575e-01 3.79310344827586188e-01 0 
3.79310344827586188e-01 3.79310344827586188e-01 0 
4.13793103448275856e-01 3.79310344827586188e-01 0 
4.48275862068965525e-01 3.79310344827586188e-01 0 
4.82758620689655138e-01 3.79310344827586188e-01 0 
0.00000000000000000e+00 0.00000000000000000e+00 0 
0.00000000000000000e+00 4.13793103448275856e-01 0 
3.44827586206896547e-02 4.13793103448275856e-01 0 
6.89655172413793094e-02 4.13793103448275856e-01 0 
1.03448275862068964e-01 4.13793103448275856e-01 0 
1.37931034482758619e-01 4.13793103448275856e-01 0 
1.72413793103448287e-01 4.13793103448275856e-01 0 
2.06896551724137928e-01 4.13793103448275856e-01 0 
2.41379310344827569e-01 4.13793103448275856e-01 0 
2.75862068965517238e-01 4.13793103448275856e-01 0 
3.10344827586206906e-01 4.13793103448275856e-01 0 
3.44827586206896575e-01 4.13793103448275856e-01 0 
3.79310344827586188e-01 4.13793103448275856e-01 0 
4.13793103448275856e-01 4.13793103448275856e-01 0 
4.48275862068965525e-01 4.13793103448275856e-01 0 
4.82758620689655138e-01 4.13793103448275856e-01 0 
0.00000000000000000e+00 0.00000000000000000e+00 0 
0.00000000000000000e+00 4.48275862068965525e-01 0 
3.44827586206896547e-02 4.48275862068965525e-01 0 
6.89655172413793094e-02 4.48275862068965525e-01 0 
1.03448275862068964e-01 4.48275862068965525e-01 0 
1.37931034482758619e-01 4.48275862068965525e-01 0 
1.72413793103448287e-01 4.48275862068965525e-01 0 
2.06896551724137928e-01 4.48275862068965525e-01 0 
2.41379310344827569e-01 4.48275862068965525e-01 0 
2.75862068965517238e-01 4.48275862068965525e-01 0 
3.10344827586206906e-01 4.48275862068965525e-01 0 
3.44827586206896575e-01 4.48275862068965525e-01 0 
3.79310344827586188e-01 4.48275862068965525e-01 0 
4.13793103448275856e-01 4.48275862068965525e-01 0 
4.48275862068965525e-01 4.48275862068965525e-01 0 
4.82758620689655138e-01 4.48275862068965525e-01 0 
0.00000000000000000e+00 0.00000000000000000e+00 0 
0.00000000000000000e+00 4.82758620689655138e-01 0 
3.44827586206896547e-02 4.82758620689655138e-01 0 
6.89655172413793094e-02 4.82758620689655138e-01 0 
1.03448275862068964e-01 4.82758620689655138e-01 0 
1.37931034482758619e-01 4.82758620689655138e-01 0 
1.72413793103448287e-01 4.82758620689655138e-01 0 
2.06896551724137928e-01 4.82758620689655138e-01 0 
2.41379310344827569e-01 4.82758620689655138e-01 0 
2.75862068965517238e-01 4.82758620689655138e-01 0 
3.10344827586206906e-01 4.82758620689655138e-01 0 
3.44827586206896575e-01 4.82758620689655138e-01 0 
3.79310344827586188e-01 4.82758620689655138e-01 0 
4.13793103448275856e-01 4.82758620689655138e-01 0 
4.48275862068965525e-01 4.82758620689655138e-01 0 
4.82758620689655138e-01 4.82758620689655138e-01 0 
0.00000000000000000e+00 0.00000000000000000e+00 0 
0.00000000000000000e+00 0.00000000000000000e+00 0 
0.00000000000000000e+00 0.00000000000000000e+00 0 
0.00000000000000000e+00 0.00000000000000000e+00 0 
0.00000000000000000e+00 0.00000000000000000e+00 0 
0.00000000000000000e+00 0.00000000000000000e+00 0 
0.00000000000000000e+00 0.00000000000000000e+00 0 
0.00000000000000000e+00 0.00000000000000000e+00 0 
0.00000000000000000e+00 0.00000000000000000e+00 0 
0.00000000000000000e+00 0.00000000000000000e+00 0 
0.00000000000000000e+00 0.00000000000000000e+00 0 
0.00000000000000000e+00 0.00000000000000000e+00 0 
0.00000000000000000e+00 0.00000000000000000e+00 0 
0.00000000000000000e+00 0.00000000000000000e+00 0 
0.00000000000000000e+00 0.00000000000000000e+00 0 
0.00000000000000000e+00 0.00000000000000000e+00 0 
0.00000000000000000e+00 0.00000000000000000e+00 0 
</DataArray>
</Points>
<PointData>
<DataArray type="Float64" Name="heat" NumberOfComponents="1" format="ascii">
2.59999999999999831e+00
2.60118906064209288e+00
2.60475624256836857e+00
2.61070154577883295e+00
2.61902497027348291e+00
2.62972651605231711e+00
2.64280618311533821e+00
2.65826397146254267e+00
2.67609988109393448e+00
2.69631391200951365e+00
2.71890606420927217e+00
2.74387633769322115e+00
2.77122473246135304e+00
2.80095124851367316e+00
2.83305588585017620e+00
0.00000000000000000e+00
2.60237812128418344e+00
2.60356718192627667e+00
2.60713436385255592e+00
2.61307966706301809e+00
2.62140309155767026e+00
2.63210463733650402e+00
2.64518430439952601e+00
2.66064209274673180e+00
2.67847800237812050e+00
2.69869203329369833e+00
2.72128418549346174e+00
2.74625445897740850e+00
2.77360285374553905e+00
2.80332936979785652e+00
2.83543400713436400e+00
0.00000000000000000e+00
2.60951248513674150e+00
2.61070154577883207e+00
2.61426872770510954e+00
2.62021403091557348e+00
2.62853745541022432e+00
2.63923900118906030e+00
2.65231866825207963e+00
2.66777645659928497e+00
2.68561236623067723e+00
2.70582639714625461e+00
2.72841854934601669e+00
2.75338882282996344e+00
2.78073721759809667e+00
2.81046373365041413e+00
2.84256837098691806e+00
0.00000000000000000e+00
2.62140309155766715e+00
2.62259215219976127e+00
2.62615933412603741e+00
2.63210463733650135e+00
2.64042806183115220e+00
2.65112960760998773e+00
2.66420927467300706e+00
2.67966706302021240e+00
2.69750297265160732e+00
2.71771700356718293e+00
2.74030915576694500e+00
2.76527942925089087e+00
2.79262782401902498e+00
2.82235434007134156e+00
2.85445897740784726e+00
0.00000000000000000e+00
2.63804994054696351e+00
2.63923900118905852e+00
2.64280618311534043e+00
2.64875148632580171e+00
2.65707491082045122e+00
2.66777645659928808e+00
2.68085612366230563e+00
2.69631391200951143e+00
2.71414982164090368e+00
2.73436385255648107e+00
2.75695600475624314e+00
2.78192627824018945e+00
2.80927467300832179e+00
2.83900118906064103e+00
2.87110582639714362e+00
0.00000000000000000e+00
2.65945303210463502e+00
2.66064209274672736e+00
2.66420927467300972e+00
2.67015457788346966e+00
2.67847800237812361e+00
2.68917954815695870e+00
2.70225921521997714e+00
2.71771700356718116e+00
2.73555291319857430e+00
2.75576694411414902e+00
2.77835909631391154e+00
2.80332936979785696e+00
2.83067776456599152e+00
2.86040428061830898e+00
2.89250891795481513e+00
0.00000000000000000e+00
2.68561236623067545e+00
2.68680142687277090e+00
2.69036860879904971e+00
2.69631391200951320e+00
2.70463733650416005e+00
2.71533888228299602e+00
2.72841854934601624e+00
2.74387633769322159e+00
2.76171224732461207e+00
2.78192627824018945e+00
2.80451843043995241e+00
2.82948870392389873e+00
2.85683709869203417e+00
2.88656361474435119e+00
2.91866825208085645e+00
0.00000000000000000e+00
2.71652794292508881e+00
2.71771700356718071e+00
2.72128418549346129e+00
2.72722948870392523e+00
2.73555291319857119e+00
2.74625445897740672e+00
2.75933412604042827e+00
2.77479191438763317e+00
2.79262782401902232e+00
2.81284185493460015e+00
2.83543400713436267e+00
2.86040428061830898e+00
2.88775267538644131e+00
2.91747919143876322e+00
2.94958382877526581e+00
0.00000000000000000e+00
2.75219976218786844e+00
2.75338882282996300e+00
2.75695600475624314e+00
2.76290130796670663e+00
2.77122473246135659e+00
2.78192627824019301e+00
2.79500594530321189e+00
2.81046373365041546e+00
2.82829964328180328e+00
2.84851367419738200e+00
2.87110582639714496e+00
2.89607609988109216e+00
2.92342449464922538e+00
2.95315101070154551e+00
2.98525564803804988e+00
0.00000000000000000e+00
2.79262782401902365e+00
2.79381688466111955e+00
2.79738406658739613e+00
2.80332936979786007e+00
2.81165279429251092e+00
2.82235434007134645e+00
2.83543400713436444e+00
2.85089179548156935e+00
2.86872770511296116e+00
2.88894173602853543e+00
2.91153388822829795e+00
2.93650416171224515e+00
2.96385255648037793e+00
2.99357907253269673e+00
3.02568370986920421e+00
0.00000000000000000e+00
2.83781212841854513e+00
2.83900118906063970e+00
2.84256837098692028e+00
2.84851367419738644e+00
2.85683709869203373e+00
2.86753864447087059e+00
2.88061831153388637e+00
2.89607609988109171e+00
2.91391200951248353e+00
2.93412604042806002e+00
2.95671819262782121e+00
2.98168846611176974e+00
3.00903686087990341e+00
3.03876337693222487e+00
3.07086801426872613e+00
0.00000000000000000e+00
2.88775267538644220e+00
2.88894173602853765e+00
2.89250891795481557e+00
2.89845422116527907e+00
2.90677764565992902e+00
2.91747919143876633e+00
2.93055885850178344e+00
2.94601664684898834e+00
2.96385255648038237e+00
2.98406658739595709e+00
3.00665873959572183e+00
3.03162901307966415e+00
3.05897740784779826e+00
3.08870392390011750e+00
3.12080856123662276e+00
0.00000000000000000e+00
2.94244946492270998e+00
2.94363852556480232e+00
2.94720570749108335e+00
2.95315101070154729e+00
2.96147443519619413e+00
2.97217598097502966e+00
2.98525564803804988e+00
3.00071343638525523e+00
3.01854934601664748e+00
3.03876337693222354e+00
3.06135552913198561e+00
3.08632580261593237e+00
3.11367419738406648e+00
3.14340071343638483e+00
3.17550535077288831e+00
0.00000000000000000e+00
3.00190249702734757e+00
3.00309155766943947e+00
3.00665873959571694e+00
3.01260404280618310e+00
3.02092746730083173e+00
3.03162901307966992e+00
3.04470868014268925e+00
3.06016646848989504e+00
3.07800237812128596e+00
3.09821640903686468e+00
3.12080856123662365e+00
3.14577883472057085e+00
3.17312722948870229e+00
3.20285374554102109e+00
3.23495838287752502e+00
0.00000000000000000e+00
3.06611177170035631e+00
3.06730083234244821e+00
3.07086801426872658e+00
3.07681331747919140e+00
3.08513674197383958e+00
3.09583828775267555e+00
3.10891795481569666e+00
3.12437574316290467e+00
3.14221165279429249e+00
3.16242568370986987e+00
3.18501783590963194e+00
3.20998810939357959e+00
3.23733650416171281e+00
3.26706302021402983e+00
3.29916765755053421e+00
0.00000000000000000e+00
0.00000000000000000e+00
0.00000000000000000e+00
0.00000000000000000e+00
0.00000000000000000e+00
0.00000000000000000e+00
0.00000000000000000e+00
0.00000000000000000e+00
0.00000000000000000e+00
0.00000000000000000e+00
0.00000000000000000e+00
0.00000000000000000e+00
0.00000000000000000e+00
0.00000000000000000e+00
0.00000000000000000e+00
0.00000000000000000e+00
0.00000000000000000e+00
</DataArray>
</PointData>
</Piece>
</StructuredGrid>
</VTKFile>
