<?xml version="1.0"?>
<VTKFile type="StructuredGrid">
<StructuredGrid WholeExtent="14 29 14 29 0 0 ">
<Piece Extent="14 29 14 29 0 0 ">
<Points>
<DataArray type="Float64" Name="coordinate" NumberOfComponents="3" format="ascii">
0.00000000000000000e+00 0.00000000000000000e+00 0 
0.00000000000000000e+00 0.00000000000000000e+00 0 
0.00000000000000000e+00 0.00000000000000000e+00 0 
0.00000000000000000e+00 0.00000000000000000e+00 0 
0.00000000000000000e+00 0.00000000000000000e+00 0 
0.00000000000000000e+00 0.00000000000000000e+00 0 
0.00000000000000000e+00 0.00000000000000000e+00 0 
0.00000000000000000e+00 0.00000000000000000e+00 0 
0.00000000000000000e+00 0.00000000000000000e+00 0 
0.00000000000000000e+00 0.00000000000000000e+00 0 
0.00000000000000000e+00 0.00000000000000000e+00 0 
0.00000000000000000e+00 0.00000000000000000e+00 0 
0.00000000000000000e+00 0.00000000000000000e+00 0 
0.00000000000000000e+00 0.00000000000000000e+00 0 
0.00000000000000000e+00 0.00000000000000000e+00 0 
0.00000000000000000e+00 0.00000000000000000e+00 0 
0.00000000000000000e+00 0.00000000000000000e+00 0 
5.17241379310344862e-01 5.17241379310344862e-01 0 
5.51724137931034475e-01 5.17241379310344862e-01 0 
5.86206896551724088e-01 5.17241379310344862e-01 0 
6.20689655172413812e-01 5.17241379310344862e-01 0 
6.55172413793103425e-01 5.17241379310344862e-01 0 
6.89655172413793149e-01 5.17241379310344862e-01 0 
7.24137931034482762e-01 5.17241379310344862e-01 0 
7.58620689655172376e-01 5.17241379310344862e-01 0 
7.93103448275862100e-01 5.17241379310344862e-01 0 
8.27586206896551713e-01 5.17241379310344862e-01 0 
8.62068965517241326e-01 5.17241379310344862e-01 0 
8.96551724137931050e-01 5.17241379310344862e-01 0 
9.31034482758620663e-01 5.17241379310344862e-01 0 
9.65517241379310276e-01 5.17241379310344862e-01 0 
1.00000000000000000e+00 5.17241379310344862e-01 0 
0.00000000000000000e+00 0.00000000000000000e+00 0 
5.17241379310344862e-01 5.51724137931034475e-01 0 
5.51724137931034475e-01 5.51724137931034475e-01 0 
5.86206896551724088e-01 5.51724137931034475e-01 0 
6.20689655172413812e-01 5.51724137931034475e-01 0 
6.55172413793103425e-01 5.51724137931034475e-01 0 
6.89655172413793149e-01 5.51724137931034475e-01 0 
7.24137931034482762e-01 5.51724137931034475e-01 0 
7.58620689655172376e-01 5.51724137931034475e-01 0 
7.93103448275862100e-01 5.51724137931034475e-01 0 
8.27586206896551713e-01 5.51724137931034475e-01 0 
8.62068965517241326e-01 5.51724137931034475e-01 0 
8.96551724137931050e-01 5.51724137931034475e-01 0 
9.31034482758620663e-01 5.51724137931034475e-01 0 
9.65517241379310276e-01 5.51724137931034475e-01 0 
1.00000000000000000e+00 5.51724137931034475e-01 0 
0.00000000000000000e+00 0.00000000000000000e+00 0 
5.17241379310344862e-01 5.86206896551724088e-01 0 
5.51724137931034475e-01 5.86206896551724088e-01 0 
5.86206896551724088e-01 5.86206896551724088e-01 0 
6.20689655172413812e-01 5.86206896551724088e-01 0 
6.55172413793103425e-01 5.86206896551724088e-01 0 
6.89655172413793149e-01 5.86206896551724088e-01 0 
7.24137931034482762e-01 5.86206896551724088e-01 0 
7.58620689655172376e-01 5.86206896551724088e-01 0 
7.93103448275862100e-01 5.86206896551724088e-01 0 
8.27586206896551713e-01 5.86206896551724088e-01 0 
8.62068965517241326e-01 5.86206896551724088e-01 0 
8.96551724137931050e-01 5.86206896551724088e-01 0 
9.31034482758620663e-01 5.86206896551724088e-01 0 
9.65517241379310276e-01 5.86206896551724088e-01 0 
1.00000000000000000e+00 5.86206896551724088e-01 0 
0.00000000000000000e+00 0.00000000000000000e+00 0 
5.17241379310344862e-01 6.20689655172413812e-01 0 
5.51724137931034475e-01 6.20689655172413812e-01 0 
5.86206896551724088e-01 6.20689655172413812e-01 0 
6.20689655172413812e-01 6.20689655172413812e-01 0 
6.55172413793103425e-01 6.20689655172413812e-01 0 
6.89655172413793149e-01 6.20689655172413812e-01 0 
7.24137931034482762e-01 6.20689655172413812e-01 0 
7.58620689655172376e-01 6.20689655172413812e-01 0 
7.93103448275862100e-01 6.20689655172413812e-01 0 
8.27586206896551713e-01 6.20689655172413812e-01 0 
8.62068965517241326e-01 6.20689655172413812e-01 0 
8.96551724137931050e-01 6.20689655172413812e-01 0 
9.31034482758620663e-01 6.20689655172413812e-01 0 
9.65517241379310276e-01 6.20689655172413812e-01 0 
1.00000000000000000e+00 6.20689655172413812e-01 0 
0.00000000000000000e+00 0.00000000000000000e+00 0 
5.17241379310344862e-01 6.55172413793103425e-01 0 
5.51724137931034475e-01 6.55172413793103425e-01 0 
5.86206896551724088e-01 6.55172413793103425e-01 0 
6.20689655172413812e-01 6.55172413793103425e-01 0 
6.55172413793103425e-01 6.55172413793103425e-01 0 
6.89655172413793149e-01 6.55172413793103425e-01 0 
7.24137931034482762e-01 6.55172413793103425e-01 0 
7.58620689655172376e-01 6.55172413793103425e-01 0 
7.93103448275862100e-01 6.55172413793103425e-01 0 
8.27586206896551713e-01 6.55172413793103425e-01 0 
8.62068965517241326e-01 6.55172413793103425e-01 0 
8.96551724137931050e-01 6.55172413793103425e-01 0 
9.31034482758620663e-01 6.55172413793103425e-01 0 
9.65517241379310276e-01 6.55172413793103425e-01 0 
1.00000000000000000e+00 6.55172413793103425e-01 0 
0.00000000000000000e+00 0.00000000000000000e+00 0 
5.17241379310344862e-01 6.89655172413793149e-01 0 
5.51724137931034475e-01 6.89655172413793149e-01 0 
5.86206896551724088e-01 6.89655172413793149e-01 0 
6.20689655172413812e-01 6.89655172413793149e-01 0 
6.55172413793103425e-01 6.89655172413793149e-01 0 
6.89655172413793149e-01 6.89655172413793149e-01 0 
7.24137931034482762e-01 6.89655172413793149e-01 0 
7.58620689655172376e-01 6.89655172413793149e-01 0 
7.93103448275862100e-01 6.89655172413793149e-01 0 
8.27586206896551713e-01 6.89655172413793149e-01 0 
8.62068965517241326e-01 6.89655172413793149e-01 0 
8.96551724137931050e-01 6.89655172413793149e-01 0 
9.31034482758620663e-01 6.89655172413793149e-01 0 
9.65517241379310276e-01 6.89655172413793149e-01 0 
1.00000000000000000e+00 6.89655172413793149e-01 0 
0.00000000000000000e+00 0.00000000000000000e+00 0 
5.17241379310344862e-01 7.24137931034482762e-01 0 
5.51724137931034475e-01 7.24137931034482762e-01 0 
5.86206896551724088e-01 7.24137931034482762e-01 0 
6.20689655172413812e-01 7.24137931034482762e-01 0 
6.55172413793103425e-01 7.24137931034482762e-01 0 
6.89655172413793149e-01 7.24137931034482762e-01 0 
7.24137931034482762e-01 7.24137931034482762e-01 0 
7.58620689655172376e-01 7.24137931034482762e-01 0 
7.93103448275862100e-01 7.24137931034482762e-01 0 
8.27586206896551713e-01 7.24137931034482762e-01 0 
8.62068965517241326e-01 7.24137931034482762e-01 0 
8.96551724137931050e-01 7.24137931034482762e-01 0 
9.31034482758620663e-01 7.24137931034482762e-01 0 
9.65517241379310276e-01 7.24137931034482762e-01 0 
1.00000000000000000e+00 7.24137931034482762e-01 0 
0.00000000000000000e+00 0.00000000000000000e+00 0 
5.17241379310344862e-01 7.58620689655172376e-01 0 
5.51724137931034475e-01 7.58620689655172376e-01 0 
5.86206896551724088e-01 7.58620689655172376e-01 0 
6.20689655172413812e-01 7.58620689655172376e-01 0 
6.55172413793103425e-01 7.58620689655172376e-01 0 
6.89655172413793149e-01 7.58620689655172376e-01 0 
7.24137931034482762e-01 7.58620689655172376e-01 0 
7.58620689655172376e-01 7.58620689655172376e-01 0 
7.93103448275862100e-01 7.58620689655172376e-01 0 
8.27586206896551713e-01 7.58620689655172376e-01 0 
8.62068965517241326e-01 7.58620689655172376e-01 0 
8.96551724137931050e-01 7.58620689655172376e-01 0 
9.31034482758620663e-01 7.58620689655172376e-01 0 
9.65517241379310276e-01 7.58620689655172376e-01 0 
1.00000000000000000e+00 7.58620689655172376e-01 0 
0.00000000000000000e+00 0.00000000000000000e+00 0 
5.17241379310344862e-01 7.93103448275862100e-01 0 
5.51724137931034475e-01 7.93103448275862100e-01 0 
5.86206896551724088e-01 7.93103448275862100e-01 0 
6.20689655172413812e-01 7.93103448275862100e-01 0 
6.55172413793103425e-01 7.93103448275862100e-01 0 
6.89655172413793149e-01 7.93103448275862100e-01 0 
7.24137931034482762e-01 7.93103448275862100e-01 0 
7.58620689655172376e-01 7.93103448275862100e-01 0 
7.93103448275862100e-01 7.93103448275862100e-01 0 
8.27586206896551713e-01 7.93103448275862100e-01 0 
8.62068965517241326e-01 7.93103448275862100e-01 0 
8.96551724137931050e-01 7.93103448275862100e-01 0 
9.31034482758620663e-01 7.93103448275862100e-01 0 
9.65517241379310276e-01 7.93103448275862100e-01 0 
1.00000000000000000e+00 7.93103448275862100e-01 0 
0.00000000000000000e+00 0.00000000000000000e+00 0 
5.17241379310344862e-01 8.27586206896551713e-01 0 
5.51724137931034475e-01 8.27586206896551713e-01 0 
5.86206896551724088e-01 8.27586206896551713e-01 0 
6.20689655172413812e-01 8.27586206896551713e-01 0 
6.55172413793103425e-01 8.27586206896551713e-01 0 
6.89655172413793149e-01 8.27586206896551713e-01 0 
7.24137931034482762e-01 8.27586206896551713e-01 0 
7.58620689655172376e-01 8.27586206896551713e-01 0 
7.93103448275862100e-01 8.27586206896551713e-01 0 
8.27586206896551713e-01 8.27586206896551713e-01 0 
8.62068965517241326e-01 8.27586206896551713e-01 0 
8.96551724137931050e-01 8.27586206896551713e-01 0 
9.31034482758620663e-01 8.27586206896551713e-01 0 
9.65517241379310276e-01 8.27586206896551713e-01 0 
1.00000000000000000e+00 8.27586206896551713e-01 0 
0.00000000000000000e+00 0.00000000000000000e+00 0 
5.17241379310344862e-01 8.62068965517241326e-01 0 
5.51724137931034475e-01 8.62068965517241326e-01 0 
5.86206896551724088e-01 8.62068965517241326e-01 0 
6.20689655172413812e-01 8.62068965517241326e-01 0 
6.55172413793103425e-01 8.62068965517241326e-01 0 
6.89655172413793149e-01 8.62068965517241326e-01 0 
7.24137931034482762e-01 8.62068965517241326e-01 0 
7.58620689655172376e-01 8.62068965517241326e-01 0 
7.93103448275862100e-01 8.62068965517241326e-01 0 
8.27586206896551713e-01 8.62068965517241326e-01 0 
8.62068965517241326e-01 8.62068965517241326e-01 0 
8.96551724137931050e-01 8.62068965517241326e-01 0 
9.31034482758620663e-01 8.62068965517241326e-01 0 
9.65517241379310276e-01 8.62068965517241326e-01 0 
1.00000000000000000e+00 8.62068965517241326e-01 0 
0.00000000000000000e+00 0.00000000000000000e+00 0 
5.17241379310344862e-01 8.96551724137931050e-01 0 
5.51724137931034475e-01 8.96551724137931050e-01 0 
5.86206896551724088e-01 8.96551724137931050e-01 0 
6.20689655172413812e-01 8.96551724137931050e-01 0 
6.55172413793103425e-01 8.96551724137931050e-01 0 
6.89655172413793149e-01 8.96551724137931050e-01 0 
7.24137931034482762e-01 8.96551724137931050e-01 0 
7.58620689655172376e-01 8.96551724137931050e-01 0 
7.93103448275862100e-01 8.96551724137931050e-01 0 
8.27586206896551713e-01 8.96551724137931050e-01 0 
8.62068965517241326e-01 8.96551724137931050e-01 0 
8.96551724137931050e-01 8.96551724137931050e-01 0 
9.31034482758620663e-01 8.96551724137931050e-01 0 
9.65517241379310276e-01 8.96551724137931050e-01 0 
1.00000000000000000e+00 8.96551724137931050e-01 0 
0.00000000000000000e+00 0.00000000000000000e+00 0 
5.17241379310344862e-01 9.31034482758620663e-01 0 
5.51724137931034475e-01 9.31034482758620663e-01 0 
5.86206896551724088e-01 9.31034482758620663e-01 0 
6.20689655172413812e-01 9.31034482758620663e-01 0 
6.55172413793103425e-01 9.31034482758620663e-01 0 
6.89655172413793149e-01 9.31034482758620663e-01 0 
7.24137931034482762e-01 9.31034482758620663e-01 0 
7.58620689655172376e-01 9.31034482758620663e-01 0 
7.93103448275862100e-01 9.31034482758620663e-01 0 
8.27586206896551713e-01 9.31034482758620663e-01 0 
8.62068965517241326e-01 9.31034482758620663e-01 0 
8.96551724137931050e-01 9.31034482758620663e-01 0 
9.31034482758620663e-01 9.31034482758620663e-01 0 
9.65517241379310276e-01 9.31034482758620663e-01 0 
1.00000000000000000e+00 9.31034482758620663e-01 0 
0.00000000000000000e+00 0.00000000000000000e+00 0 
5.17241379310344862e-01 9.65517241379310276e-01 0 
5.51724137931034475e-01 9.65517241379310276e-01 0 
5.86206896551724088e-01 9.65517241379310276e-01 0 
6.20689655172413812e-01 9.65517241379310276e-01 0 
6.55172413793103425e-01 9.65517241379310276e-01 0 
6.89655172413793149e-01 9.65517241379310276e-01 0 
7.24137931034482762e-01 9.65517241379310276e-01 0 
7.58620689655172376e-01 9.65517241379310276e-01 0 
7.93103448275862100e-01 9.65517241379310276e-01 0 
8.27586206896551713e-01 9.65517241379310276e-01 0 
8.62068965517241326e-01 9.65517241379310276e-01 0 
8.96551724137931050e-01 9.65517241379310276e-01 0 
9.31034482758620663e-01 9.65517241379310276e-01 0 
9.65517241379310276e-01 9.65517241379310276e-01 0 
1.00000000000000000e+00 9.65517241379310276e-01 0 
0.00000000000000000e+00 0.00000000000000000e+00 0 
5.17241379310344862e-01 1.00000000000000000e+00 0 
5.51724137931034475e-01 1.00000000000000000e+00 0 
5.86206896551724088e-01 1.00000000000000000e+00 0 
6.20689655172413812e-01 1.00000000000000000e+00 0 
6.55172413793103425e-01 1.00000000000000000e+00 0 
6.89655172413793149e-01 1.00000000000000000e+00 0 
7.24137931034482762e-01 1.00000000000000000e+00 0 
7.58620689655172376e-01 1.00000000000000000e+00 0 
7.93103448275862100e-01 1.00000000000000000e+00 0 
8.27586206896551713e-01 1.00000000000000000e+00 0 
8.62068965517241326e-01 1.00000000000000000e+00 0 
8.96551724137931050e-01 1.00000000000000000e+00 0 
9.31034482758620663e-01 1.00000000000000000e+00 0 
9.65517241379310276e-01 1.00000000000000000e+00 0 
1.00000000000000000e+00 1.00000000000000000e+00 0 
</DataArray>
</Points>
<PointData>
<DataArray type="Float64" Name="heat" NumberOfComponents="1" format="ascii">
0.00000000000000000e+00
0.00000000000000000e+00
0.00000000000000000e+00
0.00000000000000000e+00
0.00000000000000000e+00
0.00000000000000000e+00
0.00000000000000000e+00
0.00000000000000000e+00
0.00000000000000000e+00
0.00000000000000000e+00
0.00000000000000000e+00
0.00000000000000000e+00
0.00000000000000000e+00
0.00000000000000000e+00
0.00000000000000000e+00
0.00000000000000000e+00
0.00000000000000000e+00
5.40261593341260582e+00
5.43947681331747823e+00
5.47871581450654155e+00
5.52033293697978689e+00
5.56432818073721602e+00
5.61070154577883251e+00
5.65945303210463546e+00
5.71058263971462132e+00
5.76409036860879986e+00
5.81997621878715510e+00
5.87824019024970035e+00
5.93888228299643206e+00
6.00190249702734757e+00
6.06730083234244866e+00
6.13507728894173088e+00
0.00000000000000000e+00
5.47633769322235509e+00
5.51319857312722750e+00
5.55243757431629348e+00
5.59405469678953704e+00
5.63804994054696884e+00
5.68442330558858444e+00
5.73317479191438650e+00
5.78430439952437325e+00
5.83781212841854913e+00
5.89369797859691325e+00
5.95196195005945139e+00
6.01260404280618133e+00
6.07562425683709950e+00
6.14102259215220148e+00
6.20879904875147837e+00
0.00000000000000000e+00
5.55481569560047816e+00
5.59167657550535147e+00
5.63091557669440856e+00
5.67253269916765834e+00
5.71652794292508570e+00
5.76290130796670752e+00
5.81165279429250514e+00
5.86278240190249722e+00
5.91629013079666866e+00
5.97217598097502478e+00
6.03043995243757625e+00
6.09108204518431240e+00
6.15410225921522169e+00
6.21950059453031923e+00
6.28727705112960500e+00
0.00000000000000000e+00
5.63804994054696884e+00
5.67491082045184037e+00
5.71414982164090279e+00
5.75576694411415257e+00
5.79976218787157816e+00
5.84613555291319376e+00
5.89488703923900026e+00
5.94601664684898612e+00
5.99952437574316377e+00
6.05541022592152434e+00
6.11367419738406959e+00
6.17431629013079597e+00
6.23733650416171148e+00
6.30273483947681612e+00
6.37051129607610012e+00
0.00000000000000000e+00
5.72604042806182534e+00
5.76290130796670397e+00
5.80214030915576284e+00
5.84375743162901173e+00
5.88775267538644176e+00
5.93412604042806624e+00
5.98287752675386741e+00
6.03400713436385150e+00
6.08751486325803270e+00
6.14340071343639060e+00
6.20166468489892964e+00
6.26230677764566579e+00
6.32532699167657508e+00
6.39072532699167528e+00
6.45850178359096194e+00
0.00000000000000000e+00
5.81878715814506009e+00
5.85564803804993783e+00
5.89488703923900381e+00
5.93650416171224737e+00
5.98049940546967473e+00
6.02687277051129122e+00
6.07562425683710217e+00
6.12675386444708980e+00
6.18026159334125857e+00
6.23614744351961914e+00
6.29441141498216616e+00
6.35505350772889255e+00
6.41807372175981161e+00
6.48347205707491447e+00
6.55124851367419847e+00
0.00000000000000000e+00
5.91629013079666599e+00
5.95315101070154551e+00
5.99239001189060794e+00
6.03400713436385683e+00
6.07800237812128330e+00
6.12437574316290334e+00
6.17312722948870451e+00
6.22425683709869126e+00
6.27776456599286270e+00
6.33365041617122326e+00
6.39191438763376762e+00
6.45255648038049934e+00
6.51557669441141218e+00
6.58097502972651416e+00
6.64875148632580082e+00
0.00000000000000000e+00
6.01854934601664482e+00
6.05541022592151901e+00
6.09464922711058055e+00
6.13626634958382855e+00
6.18026159334125946e+00
6.22663495838287595e+00
6.27538644470867890e+00
6.32651605231866832e+00
6.38002378121284330e+00
6.43590963139120120e+00
6.49417360285374556e+00
6.55481569560047994e+00
6.61783590963139456e+00
6.68323424494649121e+00
6.75101070154577165e+00
0.00000000000000000e+00
6.12556480380498680e+00
6.16242568370986632e+00
6.20166468489892697e+00
6.24328180737217586e+00
6.28727705112960855e+00
6.33365041617122504e+00
6.38240190249702621e+00
6.43353151010701918e+00
6.48703923900118262e+00
6.54292508917954496e+00
6.60118906064209021e+00
6.66183115338882104e+00
6.72485136741973921e+00
6.79024970273484207e+00
6.85802615933412341e+00
0.00000000000000000e+00
6.23733650416171326e+00
6.27419738406658478e+00
6.31343638525564987e+00
6.35505350772889166e+00
6.39904875148632524e+00
6.44542211652794172e+00
6.49417360285374290e+00
6.54530321046373320e+00
6.59881093935790819e+00
6.65469678953626165e+00
6.71296076099881223e+00
6.77360285374553239e+00
6.83662306777645323e+00
6.90202140309155521e+00
6.96979785969083920e+00
0.00000000000000000e+00
6.35386444708679843e+00
6.39072532699167706e+00
6.42996432818073682e+00
6.47158145065398305e+00
6.51557669441141307e+00
6.56195005945303311e+00
6.61070154577883518e+00
6.66183115338882370e+00
6.71533888228299514e+00
6.77122473246135748e+00
6.82948870392389384e+00
6.89013079667062289e+00
6.95315101070154196e+00
7.01854934601665370e+00
7.08632580261593326e+00
0.00000000000000000e+00
6.47514863258026363e+00
6.51200951248513160e+00
6.55124851367419758e+00
6.59286563614744647e+00
6.63686087990487295e+00
6.68323424494649210e+00
6.73198573127229771e+00
6.78311533888228446e+00
6.83662306777645590e+00
6.89250891795481646e+00
6.95077288941735993e+00
7.01141498216408809e+00
7.07443519619500716e+00
7.13983353151010824e+00
7.20760998810939579e+00
0.00000000000000000e+00
6.60118906064209376e+00
6.63804994054697151e+00
6.67728894173602683e+00
6.71890606420927572e+00
6.76290130796670752e+00
6.80927467300832223e+00
6.85802615933412252e+00
6.90915576694411193e+00
6.96266349583828870e+00
7.01854934601664393e+00
7.07681331747919273e+00
7.13745541022592356e+00
7.20047562425683552e+00
7.26587395957193927e+00
7.33365041617122504e+00
0.00000000000000000e+00
6.73198573127229594e+00
6.76884661117717545e+00
6.80808561236623255e+00
6.84970273483947878e+00
6.89369797859690436e+00
6.94007134363852884e+00
6.98882282996433091e+00
7.03995243757431410e+00
7.09346016646849264e+00
7.14934601664684877e+00
7.20760998810939046e+00
7.26825208085611418e+00
7.33127229488704302e+00
7.39667063020214322e+00
7.46444708680141922e+00
0.00000000000000000e+00
6.86753864447086571e+00
6.90439952437573456e+00
6.94363852556479877e+00
6.98525564803804411e+00
7.02925089179547768e+00
7.07562425683709861e+00
7.12437574316289624e+00
7.17550535077289098e+00
7.22901307966706241e+00
7.28489892984542209e+00
7.34316290130796467e+00
7.40380499405468839e+00
7.46682520808561012e+00
7.53222354340070854e+00
7.59999999999999432e+00
</DataArray>
</PointData>
</Piece>
</StructuredGrid>
</VTKFile>
