<?xml version="1.0"?>
<VTKFile type="StructuredGrid">
<StructuredGrid WholeExtent="0 15 14 29 0 0 ">
<Piece Extent="0 15 14 29 0 0 ">
<Points>
<DataArray type="Float64" Name="coordinate" NumberOfComponents="3" format="ascii">
0.00000000000000000e+00 0.00000000000000000e+00 0 
0.00000000000000000e+00 0.00000000000000000e+00 0 
0.00000000000000000e+00 0.00000000000000000e+00 0 
0.00000000000000000e+00 0.00000000000000000e+00 0 
0.00000000000000000e+00 0.00000000000000000e+00 0 
0.00000000000000000e+00 0.00000000000000000e+00 0 
0.00000000000000000e+00 0.00000000000000000e+00 0 
0.00000000000000000e+00 0.00000000000000000e+00 0 
0.00000000000000000e+00 0.00000000000000000e+00 0 
0.00000000000000000e+00 0.00000000000000000e+00 0 
0.00000000000000000e+00 0.00000000000000000e+00 0 
0.00000000000000000e+00 0.00000000000000000e+00 0 
0.00000000000000000e+00 0.00000000000000000e+00 0 
0.00000000000000000e+00 0.00000000000000000e+00 0 
0.00000000000000000e+00 0.00000000000000000e+00 0 
0.00000000000000000e+00 0.00000000000000000e+00 0 
0.00000000000000000e+00 5.17241379310344862e-01 0 
3.44827586206896547e-02 5.17241379310344862e-01 0 
6.89655172413793094e-02 5.17241379310344862e-01 0 
1.03448275862068964e-01 5.17241379310344862e-01 0 
1.37931034482758619e-01 5.17241379310344862e-01 0 
1.72413793103448287e-01 5.17241379310344862e-01 0 
2.06896551724137928e-01 5.17241379310344862e-01 0 
2.41379310344827569e-01 5.17241379310344862e-01 0 
2.75862068965517238e-01 5.17241379310344862e-01 0 
3.10344827586206906e-01 5.17241379310344862e-01 0 
3.44827586206896575e-01 5.17241379310344862e-01 0 
3.79310344827586188e-01 5.17241379310344862e-01 0 
4.13793103448275856e-01 5.17241379310344862e-01 0 
4.48275862068965525e-01 5.17241379310344862e-01 0 
4.82758620689655138e-01 5.17241379310344862e-01 0 
0.00000000000000000e+00 0.00000000000000000e+00 0 
0.00000000000000000e+00 5.51724137931034475e-01 0 
3.44827586206896547e-02 5.51724137931034475e-01 0 
6.89655172413793094e-02 5.51724137931034475e-01 0 
1.03448275862068964e-01 5.51724137931034475e-01 0 
1.37931034482758619e-01 5.51724137931034475e-01 0 
1.72413793103448287e-01 5.51724137931034475e-01 0 
2.06896551724137928e-01 5.51724137931034475e-01 0 
2.41379310344827569e-01 5.51724137931034475e-01 0 
2.75862068965517238e-01 5.51724137931034475e-01 0 
3.10344827586206906e-01 5.51724137931034475e-01 0 
3.44827586206896575e-01 5.51724137931034475e-01 0 
3.79310344827586188e-01 5.51724137931034475e-01 0 
4.13793103448275856e-01 5.51724137931034475e-01 0 
4.48275862068965525e-01 5.51724137931034475e-01 0 
4.82758620689655138e-01 5.51724137931034475e-01 0 
0.00000000000000000e+00 0.00000000000000000e+00 0 
0.00000000000000000e+00 5.86206896551724088e-01 0 
3.44827586206896547e-02 5.86206896551724088e-01 0 
6.89655172413793094e-02 5.86206896551724088e-01 0 
1.03448275862068964e-01 5.86206896551724088e-01 0 
1.37931034482758619e-01 5.86206896551724088e-01 0 
1.72413793103448287e-01 5.86206896551724088e-01 0 
2.06896551724137928e-01 5.86206896551724088e-01 0 
2.41379310344827569e-01 5.86206896551724088e-01 0 
2.75862068965517238e-01 5.86206896551724088e-01 0 
3.10344827586206906e-01 5.86206896551724088e-01 0 
3.44827586206896575e-01 5.86206896551724088e-01 0 
3.79310344827586188e-01 5.86206896551724088e-01 0 
4.13793103448275856e-01 5.86206896551724088e-01 0 
4.48275862068965525e-01 5.86206896551724088e-01 0 
4.82758620689655138e-01 5.86206896551724088e-01 0 
0.00000000000000000e+00 0.00000000000000000e+00 0 
0.00000000000000000e+00 6.20689655172413812e-01 0 
3.44827586206896547e-02 6.20689655172413812e-01 0 
6.89655172413793094e-02 6.20689655172413812e-01 0 
1.03448275862068964e-01 6.20689655172413812e-01 0 
1.37931034482758619e-01 6.20689655172413812e-01 0 
1.72413793103448287e-01 6.20689655172413812e-01 0 
2.06896551724137928e-01 6.20689655172413812e-01 0 
2.41379310344827569e-01 6.20689655172413812e-01 0 
2.75862068965517238e-01 6.20689655172413812e-01 0 
3.10344827586206906e-01 6.20689655172413812e-01 0 
3.44827586206896575e-01 6.20689655172413812e-01 0 
3.79310344827586188e-01 6.20689655172413812e-01 0 
4.13793103448275856e-01 6.20689655172413812e-01 0 
4.48275862068965525e-01 6.20689655172413812e-01 0 
4.82758620689655138e-01 6.20689655172413812e-01 0 
0.00000000000000000e+00 0.00000000000000000e+00 0 
0.00000000000000000e+00 6.55172413793103425e-01 0 
3.44827586206896547e-02 6.55172413793103425e-01 0 
6.89655172413793094e-02 6.55172413793103425e-01 0 
1.03448275862068964e-01 6.55172413793103425e-01 0 
1.37931034482758619e-01 6.55172413793103425e-01 0 
1.72413793103448287e-01 6.55172413793103425e-01 0 
2.06896551724137928e-01 6.55172413793103425e-01 0 
2.41379310344827569e-01 6.55172413793103425e-01 0 
2.75862068965517238e-01 6.55172413793103425e-01 0 
3.10344827586206906e-01 6.55172413793103425e-01 0 
3.44827586206896575e-01 6.55172413793103425e-01 0 
3.79310344827586188e-01 6.55172413793103425e-01 0 
4.13793103448275856e-01 6.55172413793103425e-01 0 
4.48275862068965525e-01 6.55172413793103425e-01 0 
4.82758620689655138e-01 6.55172413793103425e-01 0 
0.00000000000000000e+00 0.00000000000000000e+00 0 
0.00000000000000000e+00 6.89655172413793149e-01 0 
3.44827586206896547e-02 6.89655172413793149e-01 0 
6.89655172413793094e-02 6.89655172413793149e-01 0 
1.03448275862068964e-01 6.89655172413793149e-01 0 
1.37931034482758619e-01 6.89655172413793149e-01 0 
1.72413793103448287e-01 6.89655172413793149e-01 0 
2.06896551724137928e-01 6.89655172413793149e-01 0 
2.41379310344827569e-01 6.89655172413793149e-01 0 
2.75862068965517238e-01 6.89655172413793149e-01 0 
3.10344827586206906e-01 6.89655172413793149e-01 0 
3.44827586206896575e-01 6.89655172413793149e-01 0 
3.79310344827586188e-01 6.89655172413793149e-01 0 
4.13793103448275856e-01 6.89655172413793149e-01 0 
4.48275862068965525e-01 6.89655172413793149e-01 0 
4.82758620689655138e-01 6.89655172413793149e-01 0 
0.00000000000000000e+00 0.00000000000000000e+00 0 
0.00000000000000000e+00 7.24137931034482762e-01 0 
3.44827586206896547e-02 7.24137931034482762e-01 0 
6.89655172413793094e-02 7.24137931034482762e-01 0 
1.03448275862068964e-01 7.24137931034482762e-01 0 
1.37931034482758619e-01 7.24137931034482762e-01 0 
1.72413793103448287e-01 7.24137931034482762e-01 0 
2.06896551724137928e-01 7.24137931034482762e-01 0 
2.41379310344827569e-01 7.24137931034482762e-01 0 
2.75862068965517238e-01 7.24137931034482762e-01 0 
3.10344827586206906e-01 7.24137931034482762e-01 0 
3.44827586206896575e-01 7.24137931034482762e-01 0 
3.79310344827586188e-01 7.24137931034482762e-01 0 
4.13793103448275856e-01 7.24137931034482762e-01 0 
4.48275862068965525e-01 7.24137931034482762e-01 0 
4.82758620689655138e-01 7.24137931034482762e-01 0 
0.00000000000000000e+00 0.00000000000000000e+00 0 
0.00000000000000000e+00 7.58620689655172376e-01 0 
3.44827586206896547e-02 7.58620689655172376e-01 0 
6.89655172413793094e-02 7.58620689655172376e-01 0 
1.03448275862068964e-01 7.58620689655172376e-01 0 
1.37931034482758619e-01 7.58620689655172376e-01 0 
1.72413793103448287e-01 7.58620689655172376e-01 0 
2.06896551724137928e-01 7.58620689655172376e-01 0 
2.41379310344827569e-01 7.58620689655172376e-01 0 
2.75862068965517238e-01 7.58620689655172376e-01 0 
3.10344827586206906e-01 7.58620689655172376e-01 0 
3.44827586206896575e-01 7.58620689655172376e-01 0 
3.79310344827586188e-01 7.58620689655172376e-01 0 
4.13793103448275856e-01 7.58620689655172376e-01 0 
4.48275862068965525e-01 7.58620689655172376e-01 0 
4.82758620689655138e-01 7.58620689655172376e-01 0 
0.00000000000000000e+00 0.00000000000000000e+00 0 
0.00000000000000000e+00 7.93103448275862100e-01 0 
3.44827586206896547e-02 7.93103448275862100e-01 0 
6.89655172413793094e-02 7.93103448275862100e-01 0 
1.03448275862068964e-01 7.93103448275862100e-01 0 
1.37931034482758619e-01 7.93103448275862100e-01 0 
1.72413793103448287e-01 7.93103448275862100e-01 0 
2.06896551724137928e-01 7.93103448275862100e-01 0 
2.41379310344827569e-01 7.93103448275862100e-01 0 
2.75862068965517238e-01 7.93103448275862100e-01 0 
3.10344827586206906e-01 7.93103448275862100e-01 0 
3.44827586206896575e-01 7.93103448275862100e-01 0 
3.79310344827586188e-01 7.93103448275862100e-01 0 
4.13793103448275856e-01 7.93103448275862100e-01 0 
4.48275862068965525e-01 7.93103448275862100e-01 0 
4.82758620689655138e-01 7.93103448275862100e-01 0 
0.00000000000000000e+00 0.00000000000000000e+00 0 
0.00000000000000000e+00 8.27586206896551713e-01 0 
3.44827586206896547e-02 8.27586206896551713e-01 0 
6.89655172413793094e-02 8.27586206896551713e-01 0 
1.03448275862068964e-01 8.27586206896551713e-01 0 
1.37931034482758619e-01 8.27586206896551713e-01 0 
1.72413793103448287e-01 8.27586206896551713e-01 0 
2.06896551724137928e-01 8.27586206896551713e-01 0 
2.41379310344827569e-01 8.27586206896551713e-01 0 
2.75862068965517238e-01 8.27586206896551713e-01 0 
3.10344827586206906e-01 8.27586206896551713e-01 0 
3.44827586206896575e-01 8.27586206896551713e-01 0 
3.79310344827586188e-01 8.27586206896551713e-01 0 
4.13793103448275856e-01 8.27586206896551713e-01 0 
4.48275862068965525e-01 8.27586206896551713e-01 0 
4.82758620689655138e-01 8.27586206896551713e-01 0 
0.00000000000000000e+00 0.00000000000000000e+00 0 
0.00000000000000000e+00 8.62068965517241326e-01 0 
3.44827586206896547e-02 8.62068965517241326e-01 0 
6.89655172413793094e-02 8.62068965517241326e-01 0 
1.03448275862068964e-01 8.62068965517241326e-01 0 
1.37931034482758619e-01 8.62068965517241326e-01 0 
1.72413793103448287e-01 8.62068965517241326e-01 0 
2.06896551724137928e-01 8.62068965517241326e-01 0 
2.41379310344827569e-01 8.62068965517241326e-01 0 
2.75862068965517238e-01 8.62068965517241326e-01 0 
3.10344827586206906e-01 8.62068965517241326e-01 0 
3.44827586206896575e-01 8.62068965517241326e-01 0 
3.79310344827586188e-01 8.62068965517241326e-01 0 
4.13793103448275856e-01 8.62068965517241326e-01 0 
4.48275862068965525e-01 8.62068965517241326e-01 0 
4.82758620689655138e-01 8.62068965517241326e-01 0 
0.00000000000000000e+00 0.00000000000000000e+00 0 
0.00000000000000000e+00 8.96551724137931050e-01 0 
3.44827586206896547e-02 8.96551724137931050e-01 0 
6.89655172413793094e-02 8.96551724137931050e-01 0 
1.03448275862068964e-01 8.96551724137931050e-01 0 
1.37931034482758619e-01 8.96551724137931050e-01 0 
1.72413793103448287e-01 8.96551724137931050e-01 0 
2.06896551724137928e-01 8.96551724137931050e-01 0 
2.41379310344827569e-01 8.96551724137931050e-01 0 
2.75862068965517238e-01 8.96551724137931050e-01 0 
3.10344827586206906e-01 8.96551724137931050e-01 0 
3.44827586206896575e-01 8.96551724137931050e-01 0 
3.79310344827586188e-01 8.96551724137931050e-01 0 
4.13793103448275856e-01 8.96551724137931050e-01 0 
4.48275862068965525e-01 8.96551724137931050e-01 0 
4.82758620689655138e-01 8.96551724137931050e-01 0 
0.00000000000000000e+00 0.00000000000000000e+00 0 
0.00000000000000000e+00 9.31034482758620663e-01 0 
3.44827586206896547e-02 9.31034482758620663e-01 0 
6.89655172413793094e-02 9.31034482758620663e-01 0 
1.03448275862068964e-01 9.31034482758620663e-01 0 
1.37931034482758619e-01 9.31034482758620663e-01 0 
1.72413793103448287e-01 9.31034482758620663e-01 0 
2.06896551724137928e-01 9.31034482758620663e-01 0 
2.41379310344827569e-01 9.31034482758620663e-01 0 
2.75862068965517238e-01 9.31034482758620663e-01 0 
3.10344827586206906e-01 9.31034482758620663e-01 0 
3.44827586206896575e-01 9.31034482758620663e-01 0 
3.79310344827586188e-01 9.31034482758620663e-01 0 
4.13793103448275856e-01 9.31034482758620663e-01 0 
4.48275862068965525e-01 9.31034482758620663e-01 0 
4.82758620689655138e-01 9.31034482758620663e-01 0 
0.00000000000000000e+00 0.00000000000000000e+00 0 
0.00000000000000000e+00 9.65517241379310276e-01 0 
3.44827586206896547e-02 9.65517241379310276e-01 0 
6.89655172413793094e-02 9.65517241379310276e-01 0 
1.03448275862068964e-01 9.65517241379310276e-01 0 
1.37931034482758619e-01 9.65517241379310276e-01 0 
1.72413793103448287e-01 9.65517241379310276e-01 0 
2.06896551724137928e-01 9.65517241379310276e-01 0 
2.41379310344827569e-01 9.65517241379310276e-01 0 
2.75862068965517238e-01 9.65517241379310276e-01 0 
3.10344827586206906e-01 9.65517241379310276e-01 0 
3.44827586206896575e-01 9.65517241379310276e-01 0 
3.79310344827586188e-01 9.65517241379310276e-01 0 
4.13793103448275856e-01 9.65517241379310276e-01 0 
4.48275862068965525e-01 9.65517241379310276e-01 0 
4.82758620689655138e-01 9.65517241379310276e-01 0 
0.00000000000000000e+00 0.00000000000000000e+00 0 
0.00000000000000000e+00 1.00000000000000000e+00 0 
3.44827586206896547e-02 1.00000000000000000e+00 0 
6.89655172413793094e-02 1.00000000000000000e+00 0 
1.03448275862068964e-01 1.00000000000000000e+00 0 
1.37931034482758619e-01 1.00000000000000000e+00 0 
1.72413793103448287e-01 1.00000000000000000e+00 0 
2.06896551724137928e-01 1.00000000000000000e+00 0 
2.41379310344827569e-01 1.00000000000000000e+00 0 
2.75862068965517238e-01 1.00000000000000000e+00 0 
3.10344827586206906e-01 1.00000000000000000e+00 0 
3.44827586206896575e-01 1.00000000000000000e+00 0 
3.79310344827586188e-01 1.00000000000000000e+00 0 
4.13793103448275856e-01 1.00000000000000000e+00 0 
4.48275862068965525e-01 1.00000000000000000e+00 0 
4.82758620689655138e-01 1.00000000000000000e+00 0 
0.00000000000000000e+00 0.00000000000000000e+00 0 
</DataArray>
</Points>
<PointData>
<DataArray type="Float64" Name="heat" NumberOfComponents="1" format="ascii">
0.00000000000000000e+00
0.00000000000000000e+00
0.00000000000000000e+00
0.00000000000000000e+00
0.00000000000000000e+00
0.00000000000000000e+00
0.00000000000000000e+00
0.00000000000000000e+00
0.00000000000000000e+00
0.00000000000000000e+00
0.00000000000000000e+00
0.00000000000000000e+00
0.00000000000000000e+00
0.00000000000000000e+00
0.00000000000000000e+00
0.00000000000000000e+00
4.33507728894173017e+00
4.33626634958383050e+00
4.33983353151010753e+00
4.34577883472056925e+00
4.35410225921522454e+00
4.36480380499405296e+00
4.37788347205707584e+00
4.39334126040428341e+00
4.41117717003567122e+00
4.43139120095125172e+00
4.45398335315101246e+00
4.47895362663496410e+00
4.50630202140309510e+00
4.53602853745541168e+00
4.56813317479191650e+00
0.00000000000000000e+00
4.40879904875148654e+00
4.40998810939357799e+00
4.41355529131985769e+00
4.41950059453032207e+00
4.42782401902496758e+00
4.43852556480380755e+00
4.45160523186682600e+00
4.46706302021402912e+00
4.48489892984542404e+00
4.50511296076100098e+00
4.52770511296076528e+00
4.55267538644471426e+00
4.58002378121284615e+00
4.60975029726516183e+00
4.64185493460167020e+00
0.00000000000000000e+00
4.48727705112960784e+00
4.48846611177170285e+00
4.49203329369798343e+00
4.49797859690844426e+00
4.50630202140308889e+00
4.51700356718192619e+00
4.53008323424494552e+00
4.54554102259215487e+00
4.56337693222354446e+00
4.58359096313912762e+00
4.60618311533888569e+00
4.63115338882283112e+00
4.65850178359096301e+00
4.68822829964328314e+00
4.72033293697979062e+00
0.00000000000000000e+00
4.57051129607609941e+00
4.57170035671819086e+00
4.57526753864446878e+00
4.58121284185493494e+00
4.58953626634958400e+00
4.60023781212841865e+00
4.61331747919143886e+00
4.62877526753864288e+00
4.64661117717003602e+00
4.66682520808561385e+00
4.68941736028537282e+00
4.71438763376932890e+00
4.74173602853745635e+00
4.77146254458977825e+00
4.80356718192627419e+00
0.00000000000000000e+00
4.65850178359095857e+00
4.65969084423305802e+00
4.66325802615934037e+00
4.66920332936980387e+00
4.67752675386445027e+00
4.68822829964328047e+00
4.70130796670630069e+00
4.71676575505350648e+00
4.73460166468490407e+00
4.75481569560047745e+00
4.77740784780023997e+00
4.80237812128419161e+00
4.82972651605232084e+00
4.85945303210463919e+00
4.89155766944114667e+00
0.00000000000000000e+00
4.75124851367418799e+00
4.75243757431629188e+00
4.75600475624256802e+00
4.76195005945303418e+00
4.77027348394768325e+00
4.78097502972651611e+00
4.79405469678953544e+00
4.80951248513674212e+00
4.82734839476813526e+00
4.84756242568371309e+00
4.87015457788347117e+00
4.89512485136742459e+00
4.92247324613555381e+00
4.95219976218787128e+00
4.98430439952437965e+00
0.00000000000000000e+00
4.84875148632580455e+00
4.84994054696789689e+00
4.85350772889417303e+00
4.85945303210463742e+00
4.86777645659928826e+00
4.87847800237812557e+00
4.89155766944114045e+00
4.90701545778834891e+00
4.92485136741974028e+00
4.94506539833531455e+00
4.96765755053508240e+00
4.99262782401902871e+00
5.01997621878715705e+00
5.04970273483947540e+00
5.08180737217597933e+00
0.00000000000000000e+00
4.95101070154577005e+00
4.95219976218787039e+00
4.95576694411415009e+00
4.96171224732461535e+00
4.97003567181926265e+00
4.98073721759809640e+00
4.99381688466111484e+00
5.00927467300832063e+00
5.02711058263971466e+00
5.04732461355529516e+00
5.06991676575505679e+00
5.09488703923900932e+00
5.12223543400713410e+00
5.15196195005945690e+00
5.18406658739595549e+00
0.00000000000000000e+00
5.05802615933412625e+00
5.05921521997622126e+00
5.06278240190250095e+00
5.06872770511296000e+00
5.07705112960761351e+00
5.08775267538645082e+00
5.10083234244946482e+00
5.11629013079667239e+00
5.13412604042806286e+00
5.15434007134364069e+00
5.17693222354340410e+00
5.20190249702735130e+00
5.22925089179548230e+00
5.25897740784780510e+00
5.29108204518430103e+00
0.00000000000000000e+00
5.16979785969084027e+00
5.17098692033293439e+00
5.17455410225921497e+00
5.18049940546967758e+00
5.18882282996432664e+00
5.19952437574316306e+00
5.21260404280617706e+00
5.22806183115339174e+00
5.24589774078477600e+00
5.26611177170035649e+00
5.28870392390012256e+00
5.31367419738407154e+00
5.34102259215219810e+00
5.37074910820451734e+00
5.40285374554102571e+00
0.00000000000000000e+00
5.28632580261592455e+00
5.28751486325802666e+00
5.29108204518430281e+00
5.29702734839476896e+00
5.30535077288941714e+00
5.31605231866825267e+00
5.32913198573127112e+00
5.34458977407848046e+00
5.36242568370986739e+00
5.38263971462544077e+00
5.40523186682520329e+00
5.43020214030915671e+00
5.45755053507728771e+00
5.48727705112960784e+00
5.51938168846611177e+00
0.00000000000000000e+00
5.40760998810939419e+00
5.40879904875148299e+00
5.41236623067776357e+00
5.41831153388823239e+00
5.42663495838287879e+00
5.43733650416171432e+00
5.45041617122473365e+00
5.46587395957193500e+00
5.48370986920333170e+00
5.50392390011890509e+00
5.52651605231866405e+00
5.55148632580261481e+00
5.57883472057075025e+00
5.60856123662306505e+00
5.64066587395957164e+00
0.00000000000000000e+00
5.53365041617121989e+00
5.53483947681332200e+00
5.53840665873959459e+00
5.54435196195005897e+00
5.55267538644470537e+00
5.56337693222354535e+00
5.57645659928656823e+00
5.59191438763377313e+00
5.60975029726515562e+00
5.62996432818073078e+00
5.65255648038049419e+00
5.67752675386444228e+00
5.70487514863257950e+00
5.73460166468489696e+00
5.76670630202140533e+00
0.00000000000000000e+00
5.66444708680141584e+00
5.66563614744351973e+00
5.66920332936980298e+00
5.67514863258026381e+00
5.68347205707491376e+00
5.69417360285374485e+00
5.70725326991676596e+00
5.72271105826397619e+00
5.74054696789535868e+00
5.76076099881094006e+00
5.78335315101070258e+00
5.80832342449464889e+00
5.83567181926278256e+00
5.86539833531510180e+00
5.89750297265160484e+00
0.00000000000000000e+00
5.79999999999999805e+00
5.80118906064209217e+00
5.80475624256837541e+00
5.81070154577883180e+00
5.81902497027348442e+00
5.82972651605231196e+00
5.84280618311533484e+00
5.85826397146254241e+00
5.87609988109393200e+00
5.89631391200951516e+00
5.91890606420926613e+00
5.94387633769321866e+00
5.97122473246135144e+00
6.00095124851366890e+00
6.03305588585017993e+00
0.00000000000000000e+00
</DataArray>
</PointData>
</Piece>
</StructuredGrid>
</VTKFile>
